<?xml version="1.0" encoding="UTF-8"?>

<!-- generated on 2026-03-09T10:19:29.386997-05:00 by Eclipse SUMO sumo 1.26.0
<sumoConfiguration xmlns:xsi="http://www.w3.org/2001/XMLSchema-instance" xsi:noNamespaceSchemaLocation="http://sumo.dlr.de/xsd/sumoConfiguration.xsd">

    <input>
        <net-file value="acosta_buslanes.net.xml"/>
        <route-files value="acosta.rou.xml,acosta_busses.rou.xml"/>
        <additional-files value="acosta_vtypes.add.xml,acosta_detectors.add.xml,acosta_bus_stops.add.xml,acosta_tls.add.xml,edgedata.add.xml"/>
    </input>

    <output>
        <tripinfo-output value="tripinfos.xml"/>
    </output>

    <report>
        <no-warnings value="true"/>
        <no-step-log value="true"/>
    </report>

</sumoConfiguration>
-->

<meandata xmlns:xsi="http://www.w3.org/2001/XMLSchema-instance" xsi:noNamespaceSchemaLocation="http://sumo.dlr.de/xsd/meandata_file.xsd">
    <interval begin="0.00" end="5656.00" id="base">
        <edge id="1" sampledSeconds="959.46" traveltime="0.03" overlapTraveltime="0.74" density="33.97" overlapDensity="363.64" laneDensity="16.99" occupancy="8.15" waitingTime="1.00" timeLoss="144.37" speed="6.83" speedRelative="0.49" departed="0" arrived="0" entered="1301" left="1301" laneChangedFrom="1" laneChangedTo="1" flow="828.00"/>
        <edge id="10" sampledSeconds="0.00" departed="0" arrived="0" entered="0" left="0" laneChangedFrom="0" laneChangedTo="0"/>
        <edge id="103" sampledSeconds="26618.41" traveltime="34.39" overlapTraveltime="36.17" density="32.45" overlapDensity="34.13" laneDensity="16.23" occupancy="7.98" waitingTime="12576.00" timeLoss="18732.35" speed="3.95" speedRelative="0.28" departed="0" arrived="0" entered="736" left="736" laneChangedFrom="11" laneChangedTo="11" flow="468.46"/>
        <edge id="104" sampledSeconds="12173.16" traveltime="23.95" overlapTraveltime="24.59" density="55.39" overlapDensity="56.88" laneDensity="27.70" occupancy="13.24" waitingTime="8695.00" timeLoss="10620.80" speed="1.74" speedRelative="0.12" departed="0" arrived="0" entered="495" left="495" laneChangedFrom="0" laneChangedTo="0" flow="315.06"/>
        <edge id="109[0]" sampledSeconds="1242.80" traveltime="2.10" overlapTraveltime="2.54" density="7.32" overlapDensity="8.85" laneDensity="7.32" occupancy="3.79" waitingTime="0.00" timeLoss="162.73" speed="11.85" speedRelative="0.85" departed="0" arrived="0" entered="490" left="490" laneChangedFrom="0" laneChangedTo="0" flow="311.88"/>
        <edge id="109[1][0]+20003" sampledSeconds="1984.51" traveltime="3.51" overlapTraveltime="4.33" density="11.31" overlapDensity="13.05" laneDensity="5.65" occupancy="4.41" waitingTime="57.00" timeLoss="350.42" speed="7.93" speedRelative="0.57" departed="0" arrived="0" entered="490" left="490" laneChangedFrom="24" laneChangedTo="24" flow="311.88"/>
        <edge id="109[1][1]" sampledSeconds="1330.77" traveltime="2.24" overlapTraveltime="2.73" density="7.74" overlapDensity="9.38" laneDensity="7.74" occupancy="4.07" waitingTime="0.00" timeLoss="221.11" speed="11.16" speedRelative="0.80" departed="0" arrived="0" entered="490" left="490" laneChangedFrom="0" laneChangedTo="0" flow="311.88"/>
        <edge id="11" sampledSeconds="45186.24" traveltime="43.36" overlapTraveltime="44.03" density="232.09" overlapDensity="235.53" laneDensity="77.36" occupancy="35.66" waitingTime="37782.00" timeLoss="42214.32" speed="0.88" speedRelative="0.06" departed="0" arrived="0" entered="1027" left="1027" laneChangedFrom="148" laneChangedTo="148" flow="653.68"/>
        <edge id="110" sampledSeconds="201.56" traveltime="7.50" overlapTraveltime="8.40" density="0.34" overlapDensity="0.38" laneDensity="0.34" occupancy="0.40" waitingTime="0.00" timeLoss="20.62" speed="12.47" speedRelative="0.90" departed="0" arrived="0" entered="24" left="24" laneChangedFrom="0" laneChangedTo="0" flow="15.28"/>
        <edge id="113" sampledSeconds="41545.85" traveltime="29.44" overlapTraveltime="30.04" density="89.56" overlapDensity="91.38" laneDensity="29.85" occupancy="14.51" waitingTime="27311.00" timeLoss="32939.04" speed="2.84" speedRelative="0.20" departed="0" arrived="0" entered="1383" left="1383" laneChangedFrom="623" laneChangedTo="623" flow="880.27"/>
        <edge id="114" sampledSeconds="90967.89" traveltime="55.16" overlapTraveltime="55.55" density="23.07" overlapDensity="23.18" laneDensity="7.69" occupancy="3.91" waitingTime="31.00" timeLoss="6859.69" speed="12.58" speedRelative="0.91" departed="0" arrived="1641" entered="1641" left="0" laneChangedFrom="1821" laneChangedTo="1821" flow="1044.42"/>
        <edge id="115" sampledSeconds="924.45" traveltime="36.22" overlapTraveltime="38.52" density="1.03" overlapDensity="1.09" laneDensity="1.03" occupancy="1.26" waitingTime="25.00" timeLoss="165.61" speed="4.19" speedRelative="0.30" departed="0" arrived="0" entered="24" left="24" laneChangedFrom="0" laneChangedTo="0" flow="15.28"/>
        <edge id="116" sampledSeconds="3803.43" traveltime="6.43" overlapTraveltime="6.84" density="8.46" overlapDensity="9.01" laneDensity="8.46" occupancy="4.31" waitingTime="0.00" timeLoss="560.25" speed="11.67" speedRelative="0.84" departed="0" arrived="0" entered="556" left="556" laneChangedFrom="0" laneChangedTo="0" flow="353.89"/>
        <edge id="117" sampledSeconds="13055.27" traveltime="31.80" overlapTraveltime="32.72" density="17.45" overlapDensity="17.96" laneDensity="17.45" occupancy="8.52" waitingTime="6278.00" timeLoss="8952.26" speed="4.08" speedRelative="0.29" departed="0" arrived="0" entered="399" left="399" laneChangedFrom="0" laneChangedTo="0" flow="253.96"/>
        <edge id="118" sampledSeconds="5547.15" traveltime="12.12" overlapTraveltime="12.55" density="7.37" overlapDensity="7.63" laneDensity="7.37" occupancy="3.55" waitingTime="637.00" timeLoss="1303.94" speed="10.63" speedRelative="0.77" departed="0" arrived="0" entered="442" left="442" laneChangedFrom="0" laneChangedTo="0" flow="281.33"/>
        <edge id="119" sampledSeconds="2510.90" traveltime="18.66" overlapTraveltime="19.77" density="2.62" overlapDensity="2.78" laneDensity="2.62" occupancy="1.28" waitingTime="458.00" timeLoss="921.29" speed="8.33" speedRelative="0.60" departed="0" arrived="0" entered="127" left="127" laneChangedFrom="0" laneChangedTo="0" flow="80.83"/>
        <edge id="12" sampledSeconds="0.00" departed="0" arrived="0" entered="0" left="0" laneChangedFrom="0" laneChangedTo="0"/>
        <edge id="120" sampledSeconds="1548.03" traveltime="24.29" overlapTraveltime="25.38" density="1.64" overlapDensity="1.71" laneDensity="1.64" occupancy="0.80" waitingTime="579.00" timeLoss="783.38" speed="6.49" speedRelative="0.47" departed="0" arrived="0" entered="61" left="61" laneChangedFrom="0" laneChangedTo="0" flow="38.83"/>
        <edge id="121" sampledSeconds="6658.72" traveltime="148.62" overlapTraveltime="151.33" density="1.67" overlapDensity="1.70" laneDensity="1.67" occupancy="2.00" waitingTime="1594.00" timeLoss="2663.45" speed="4.66" speedRelative="0.34" departed="44" arrived="0" entered="0" left="44" laneChangedFrom="0" laneChangedTo="0" flow="28.01"/>
        <edge id="122" sampledSeconds="28691.84" traveltime="17.17" overlapTraveltime="17.72" density="23.19" overlapDensity="23.94" laneDensity="7.73" occupancy="3.75" waitingTime="417.00" timeLoss="3158.87" speed="12.23" speedRelative="0.88" departed="0" arrived="0" entered="1619" left="1619" laneChangedFrom="233" laneChangedTo="233" flow="1030.48"/>
        <edge id="124" sampledSeconds="2476.56" traveltime="2.31" overlapTraveltime="2.71" density="14.15" overlapDensity="16.60" laneDensity="7.07" occupancy="3.37" waitingTime="0.00" timeLoss="399.35" speed="11.50" speedRelative="0.83" departed="0" arrived="0" entered="913" left="913" laneChangedFrom="33" laneChangedTo="33" flow="581.12"/>
        <edge id="125" sampledSeconds="248.07" traveltime="4.74" overlapTraveltime="5.77" density="2.93" overlapDensity="3.57" laneDensity="1.47" occupancy="1.66" waitingTime="151.00" timeLoss="172.84" speed="4.21" speedRelative="0.30" departed="0" arrived="0" entered="43" left="43" laneChangedFrom="0" laneChangedTo="0" flow="27.37"/>
        <edge id="127" sampledSeconds="2409.82" traveltime="2.44" overlapTraveltime="3.24" density="20.43" overlapDensity="27.17" laneDensity="10.22" occupancy="5.13" waitingTime="38.00" timeLoss="1006.23" speed="6.34" speedRelative="0.46" departed="0" arrived="0" entered="744" left="744" laneChangedFrom="197" laneChangedTo="197" flow="473.55"/>
        <edge id="13" sampledSeconds="3016.57" traveltime="5.27" overlapTraveltime="6.10" density="20.01" overlapDensity="23.12" laneDensity="20.01" occupancy="8.38" waitingTime="328.00" timeLoss="2007.26" speed="4.58" speedRelative="0.33" departed="495" arrived="0" entered="0" left="495" laneChangedFrom="0" laneChangedTo="0" flow="315.06"/>
        <edge id="131" sampledSeconds="8344.44" traveltime="53.00" overlapTraveltime="54.21" density="4.41" overlapDensity="4.51" laneDensity="4.41" occupancy="2.24" waitingTime="3281.00" timeLoss="4616.81" speed="6.12" speedRelative="0.44" departed="154" arrived="0" entered="0" left="154" laneChangedFrom="0" laneChangedTo="0" flow="98.02"/>
        <edge id="133" sampledSeconds="1157.16" traveltime="47.14" overlapTraveltime="48.21" density="1.27" overlapDensity="1.30" laneDensity="1.27" occupancy="1.48" waitingTime="126.00" timeLoss="384.92" speed="3.51" speedRelative="0.25" departed="24" arrived="0" entered="0" left="24" laneChangedFrom="0" laneChangedTo="0" flow="15.28"/>
        <edge id="134" sampledSeconds="1109.87" traveltime="1.68" overlapTraveltime="2.19" density="13.22" overlapDensity="17.35" laneDensity="13.22" occupancy="6.25" waitingTime="103.00" timeLoss="506.10" speed="7.52" speedRelative="0.54" departed="0" arrived="0" entered="504" left="504" laneChangedFrom="0" laneChangedTo="0" flow="320.79"/>
        <edge id="134b" sampledSeconds="7601.25" traveltime="14.80" overlapTraveltime="15.29" density="8.39" overlapDensity="8.55" laneDensity="8.39" occupancy="4.94" waitingTime="296.00" timeLoss="1172.89" speed="10.67" speedRelative="0.77" departed="0" arrived="504" entered="504" left="0" laneChangedFrom="0" laneChangedTo="0" flow="320.70"/>
        <edge id="135" sampledSeconds="0.00" departed="0" arrived="0" entered="0" left="0" laneChangedFrom="0" laneChangedTo="0"/>
        <edge id="136" sampledSeconds="13846.05" traveltime="15.56" overlapTraveltime="15.94" density="12.86" overlapDensity="13.08" laneDensity="12.86" occupancy="6.14" waitingTime="0.00" timeLoss="1778.87" speed="12.05" speedRelative="0.87" departed="0" arrived="875" entered="875" left="0" laneChangedFrom="0" laneChangedTo="0" flow="556.78"/>
        <edge id="137" sampledSeconds="0.00" departed="0" arrived="0" entered="0" left="0" laneChangedFrom="0" laneChangedTo="0"/>
        <edge id="138" sampledSeconds="0.00" departed="0" arrived="0" entered="0" left="0" laneChangedFrom="0" laneChangedTo="0"/>
        <edge id="14" sampledSeconds="4250.69" traveltime="6.27" overlapTraveltime="6.64" density="9.20" overlapDensity="9.60" laneDensity="9.20" occupancy="4.40" waitingTime="0.00" timeLoss="383.85" speed="12.51" speedRelative="0.90" departed="0" arrived="650" entered="650" left="0" laneChangedFrom="0" laneChangedTo="0" flow="413.48"/>
        <edge id="15" sampledSeconds="25293.47" traveltime="59.14" overlapTraveltime="59.94" density="48.26" overlapDensity="48.91" laneDensity="48.26" occupancy="23.68" waitingTime="17537.00" timeLoss="22206.88" speed="1.61" speedRelative="0.12" departed="0" arrived="0" entered="422" left="422" laneChangedFrom="0" laneChangedTo="0" flow="268.60"/>
        <edge id="153" sampledSeconds="2549.85" traveltime="76.20" overlapTraveltime="77.27" density="1.12" overlapDensity="1.14" laneDensity="1.12" occupancy="0.55" waitingTime="1336.00" timeLoss="1556.95" speed="5.19" speedRelative="0.37" departed="0" arrived="0" entered="33" left="33" laneChangedFrom="0" laneChangedTo="0" flow="21.00"/>
        <edge id="159" sampledSeconds="10792.68" traveltime="19.45" overlapTraveltime="19.84" density="8.22" overlapDensity="8.38" laneDensity="8.22" occupancy="3.98" waitingTime="475.00" timeLoss="1686.80" speed="11.72" speedRelative="0.84" departed="0" arrived="0" entered="544" left="544" laneChangedFrom="0" laneChangedTo="0" flow="346.25"/>
        <edge id="16" sampledSeconds="3760.71" traveltime="7.98" overlapTraveltime="8.38" density="6.93" overlapDensity="7.27" laneDensity="6.93" occupancy="3.33" waitingTime="0.00" timeLoss="620.67" speed="11.50" speedRelative="0.83" departed="0" arrived="0" entered="449" left="449" laneChangedFrom="0" laneChangedTo="0" flow="285.78"/>
        <edge id="160" sampledSeconds="21323.82" traveltime="26.28" overlapTraveltime="27.06" density="16.08" overlapDensity="16.56" laneDensity="16.08" occupancy="7.90" waitingTime="2097.00" timeLoss="7719.35" speed="8.59" speedRelative="0.62" departed="0" arrived="0" entered="788" left="788" laneChangedFrom="0" laneChangedTo="0" flow="501.56"/>
        <edge id="161" sampledSeconds="26336.30" traveltime="15.52" overlapTraveltime="15.91" density="23.59" overlapDensity="24.18" laneDensity="7.86" occupancy="3.79" waitingTime="0.00" timeLoss="2544.67" speed="12.40" speedRelative="0.89" departed="0" arrived="0" entered="1655" left="1655" laneChangedFrom="1014" laneChangedTo="1014" flow="1053.39"/>
        <edge id="165" sampledSeconds="0.00" departed="0" arrived="0" entered="0" left="0" laneChangedFrom="0" laneChangedTo="0"/>
        <edge id="166" sampledSeconds="0.00" departed="0" arrived="0" entered="0" left="0" laneChangedFrom="0" laneChangedTo="0"/>
        <edge id="17" sampledSeconds="4826.11" traveltime="11.64" overlapTraveltime="12.41" density="6.01" overlapDensity="6.41" laneDensity="3.01" occupancy="1.47" waitingTime="210.00" timeLoss="920.61" speed="11.12" speedRelative="0.80" departed="0" arrived="0" entered="389" left="389" laneChangedFrom="17" laneChangedTo="17" flow="247.60"/>
        <edge id="171" sampledSeconds="3973.69" traveltime="49.22" overlapTraveltime="50.30" density="3.95" overlapDensity="4.04" laneDensity="3.95" occupancy="1.92" waitingTime="2493.00" timeLoss="2901.85" speed="3.55" speedRelative="0.26" departed="0" arrived="0" entered="79" left="79" laneChangedFrom="0" laneChangedTo="0" flow="50.28"/>
        <edge id="173" sampledSeconds="0.00" departed="0" arrived="0" entered="0" left="0" laneChangedFrom="0" laneChangedTo="0"/>
        <edge id="179" sampledSeconds="0.00" departed="0" arrived="0" entered="0" left="0" laneChangedFrom="0" laneChangedTo="0"/>
        <edge id="18" sampledSeconds="11879.83" traveltime="21.94" overlapTraveltime="22.71" density="77.52" overlapDensity="80.26" laneDensity="38.76" occupancy="17.94" waitingTime="8816.00" timeLoss="10538.64" speed="1.36" speedRelative="0.10" departed="0" arrived="0" entered="523" left="523" laneChangedFrom="0" laneChangedTo="0" flow="332.89"/>
        <edge id="180" sampledSeconds="17535.68" traveltime="19.26" overlapTraveltime="20.04" density="14.43" overlapDensity="15.01" laneDensity="14.43" occupancy="6.98" waitingTime="0.00" timeLoss="3826.50" speed="10.55" speedRelative="0.76" departed="0" arrived="0" entered="875" left="875" laneChangedFrom="0" laneChangedTo="0" flow="556.93"/>
        <edge id="181" sampledSeconds="6024.20" traveltime="9.36" overlapTraveltime="11.52" density="13.30" overlapDensity="16.37" laneDensity="6.65" occupancy="3.36" waitingTime="1889.00" timeLoss="3366.09" speed="6.07" speedRelative="0.44" departed="0" arrived="0" entered="523" left="523" laneChangedFrom="389" laneChangedTo="389" flow="332.89"/>
        <edge id="185" sampledSeconds="126.36" traveltime="4.36" overlapTraveltime="5.27" density="0.32" overlapDensity="0.39" laneDensity="0.32" occupancy="0.38" waitingTime="0.00" timeLoss="5.74" speed="13.26" speedRelative="0.95" departed="0" arrived="0" entered="24" left="24" laneChangedFrom="0" laneChangedTo="0" flow="15.28"/>
        <edge id="186" sampledSeconds="2600.81" traveltime="4.87" overlapTraveltime="5.31" density="7.30" overlapDensity="7.95" laneDensity="7.30" occupancy="3.78" waitingTime="0.00" timeLoss="334.53" speed="11.88" speedRelative="0.86" departed="0" arrived="0" entered="490" left="490" laneChangedFrom="0" laneChangedTo="0" flow="311.88"/>
        <edge id="187" sampledSeconds="975.44" traveltime="39.36" overlapTraveltime="40.64" density="1.98" overlapDensity="2.05" laneDensity="1.98" occupancy="2.38" waitingTime="144.00" timeLoss="329.07" speed="2.37" speedRelative="0.17" departed="0" arrived="0" entered="24" left="24" laneChangedFrom="0" laneChangedTo="0" flow="15.28"/>
        <edge id="188" sampledSeconds="3795.93" traveltime="7.15" overlapTraveltime="7.59" density="7.50" overlapDensity="7.96" laneDensity="7.50" occupancy="3.90" waitingTime="0.00" timeLoss="515.99" speed="11.79" speedRelative="0.85" departed="0" arrived="0" entered="500" left="500" laneChangedFrom="0" laneChangedTo="0" flow="318.25"/>
        <edge id="189[0]" sampledSeconds="432.04" traveltime="0.41" overlapTraveltime="0.91" density="7.08" overlapDensity="15.07" laneDensity="7.08" occupancy="4.02" waitingTime="15.00" timeLoss="55.24" speed="11.91" speedRelative="0.86" departed="0" arrived="0" entered="500" left="500" laneChangedFrom="0" laneChangedTo="0" flow="318.25"/>
        <edge id="189[1][0]+20000" sampledSeconds="2278.31" traveltime="4.02" overlapTraveltime="4.92" density="12.20" overlapDensity="13.82" laneDensity="6.10" occupancy="5.04" waitingTime="152.00" timeLoss="459.36" speed="7.54" speedRelative="0.54" departed="0" arrived="0" entered="500" left="500" laneChangedFrom="28" laneChangedTo="28" flow="318.25"/>
        <edge id="189[1][1]" sampledSeconds="14972.10" traveltime="29.38" overlapTraveltime="29.94" density="15.14" overlapDensity="15.43" laneDensity="15.14" occupancy="7.85" waitingTime="5937.00" timeLoss="8494.46" speed="5.90" speedRelative="0.43" departed="0" arrived="0" entered="500" left="500" laneChangedFrom="0" laneChangedTo="0" flow="318.25"/>
        <edge id="19" sampledSeconds="9158.36" traveltime="73.40" overlapTraveltime="75.14" density="22.89" overlapDensity="23.41" laneDensity="22.89" occupancy="11.27" waitingTime="6621.00" timeLoss="8426.60" speed="0.99" speedRelative="0.07" departed="0" arrived="0" entered="122" left="122" laneChangedFrom="0" laneChangedTo="0" flow="77.65"/>
        <edge id="190" sampledSeconds="1045.08" traveltime="42.49" overlapTraveltime="43.55" density="0.81" overlapDensity="0.83" laneDensity="0.81" occupancy="0.98" waitingTime="2.00" timeLoss="161.23" speed="5.37" speedRelative="0.39" departed="0" arrived="0" entered="24" left="24" laneChangedFrom="0" laneChangedTo="0" flow="15.28"/>
        <edge id="191" sampledSeconds="0.00" departed="0" arrived="0" entered="0" left="0" laneChangedFrom="0" laneChangedTo="0"/>
        <edge id="194" sampledSeconds="695.66" traveltime="18.51" overlapTraveltime="19.32" density="0.67" overlapDensity="0.70" laneDensity="0.67" occupancy="0.32" waitingTime="98.00" timeLoss="205.82" speed="9.37" speedRelative="0.67" departed="0" arrived="0" entered="36" left="36" laneChangedFrom="0" laneChangedTo="0" flow="22.91"/>
        <edge id="195" sampledSeconds="1172.18" traveltime="12.56" overlapTraveltime="13.02" density="1.57" overlapDensity="1.63" laneDensity="1.57" occupancy="0.71" waitingTime="0.00" timeLoss="312.78" speed="10.12" speedRelative="0.73" departed="90" arrived="0" entered="0" left="90" laneChangedFrom="0" laneChangedTo="0" flow="57.28"/>
        <edge id="197" sampledSeconds="0.00" departed="0" arrived="0" entered="0" left="0" laneChangedFrom="0" laneChangedTo="0"/>
        <edge id="1b" sampledSeconds="32520.84" traveltime="24.32" overlapTraveltime="25.00" density="92.58" overlapDensity="95.18" laneDensity="46.29" occupancy="22.40" waitingTime="20056.00" timeLoss="26343.02" speed="2.61" speedRelative="0.19" departed="0" arrived="0" entered="1301" left="1301" laneChangedFrom="124" laneChangedTo="124" flow="828.08"/>
        <edge id="2" sampledSeconds="6377.80" traveltime="19.09" overlapTraveltime="20.06" density="27.05" overlapDensity="28.42" laneDensity="9.02" occupancy="4.43" waitingTime="4355.00" timeLoss="5218.85" speed="2.22" speedRelative="0.16" departed="0" arrived="0" entered="318" left="318" laneChangedFrom="110" laneChangedTo="110" flow="202.40"/>
        <edge id="20" sampledSeconds="0.00" departed="0" arrived="0" entered="0" left="0" laneChangedFrom="0" laneChangedTo="0"/>
        <edge id="200" sampledSeconds="3597.15" traveltime="7.34" overlapTraveltime="7.74" density="7.27" overlapDensity="7.66" laneDensity="7.27" occupancy="3.48" waitingTime="0.00" timeLoss="633.12" speed="11.36" speedRelative="0.82" departed="0" arrived="0" entered="465" left="465" laneChangedFrom="0" laneChangedTo="0" flow="295.97"/>
        <edge id="20001+87[1][0]" sampledSeconds="2398.30" traveltime="3.95" overlapTraveltime="4.80" density="12.64" overlapDensity="14.40" laneDensity="6.32" occupancy="4.94" waitingTime="67.00" timeLoss="484.32" speed="7.70" speedRelative="0.55" departed="0" arrived="0" entered="533" left="533" laneChangedFrom="28" laneChangedTo="28" flow="339.25"/>
        <edge id="20002+89[1][0]" sampledSeconds="1734.03" traveltime="3.27" overlapTraveltime="4.15" density="11.13" overlapDensity="12.98" laneDensity="5.56" occupancy="4.51" waitingTime="20.00" timeLoss="292.76" speed="7.56" speedRelative="0.54" departed="0" arrived="0" entered="454" left="454" laneChangedFrom="24" laneChangedTo="24" flow="288.97"/>
        <edge id="201" sampledSeconds="83775.83" traveltime="57.92" overlapTraveltime="58.51" density="63.38" overlapDensity="64.02" laneDensity="21.13" occupancy="10.30" waitingTime="43214.00" timeLoss="59063.66" speed="4.04" speedRelative="0.29" departed="0" arrived="0" entered="1432" left="1432" laneChangedFrom="715" laneChangedTo="715" flow="911.46"/>
        <edge id="201c" sampledSeconds="2341.47" traveltime="1.15" overlapTraveltime="1.64" density="35.74" overlapDensity="50.73" laneDensity="11.91" occupancy="5.70" waitingTime="456.00" timeLoss="987.90" speed="7.95" speedRelative="0.57" departed="0" arrived="0" entered="1432" left="1432" laneChangedFrom="15" laneChangedTo="15" flow="911.46"/>
        <edge id="202" sampledSeconds="34766.92" traveltime="27.27" overlapTraveltime="29.86" density="33.67" overlapDensity="36.85" laneDensity="11.22" occupancy="5.71" waitingTime="12054.00" timeLoss="20170.45" speed="5.75" speedRelative="0.41" departed="0" arrived="0" entered="1165" left="1165" laneChangedFrom="374" laneChangedTo="374" flow="741.51"/>
        <edge id="203[0]" sampledSeconds="121265.74" traveltime="78.59" overlapTraveltime="79.16" density="53.06" overlapDensity="53.44" laneDensity="17.69" occupancy="8.51" waitingTime="51882.00" timeLoss="76173.61" speed="5.13" speedRelative="0.37" departed="1532" arrived="0" entered="0" left="1532" laneChangedFrom="1026" laneChangedTo="1026" flow="975.11"/>
        <edge id="203[1]" sampledSeconds="38897.99" traveltime="45.29" overlapTraveltime="45.93" density="29.52" overlapDensity="29.93" laneDensity="9.84" occupancy="4.82" waitingTime="18691.00" timeLoss="24413.85" speed="5.11" speedRelative="0.37" departed="0" arrived="0" entered="847" left="847" laneChangedFrom="613" laneChangedTo="613" flow="539.11"/>
        <edge id="203[1]b" sampledSeconds="418.87" traveltime="0.02" overlapTraveltime="0.50" density="14.90" overlapDensity="370.29" laneDensity="4.97" occupancy="2.37" waitingTime="0.00" timeLoss="108.73" speed="10.24" speedRelative="0.74" departed="0" arrived="0" entered="847" left="847" laneChangedFrom="1" laneChangedTo="1" flow="539.10"/>
        <edge id="204[1][0]" sampledSeconds="633.35" traveltime="0.04" overlapTraveltime="0.44" density="20.85" overlapDensity="207.37" laneDensity="10.43" occupancy="5.04" waitingTime="0.00" timeLoss="60.21" speed="12.47" speedRelative="0.90" departed="0" arrived="0" entered="1463" left="1463" laneChangedFrom="4" laneChangedTo="4" flow="931.16"/>
        <edge id="204[1][1]" sampledSeconds="49873.79" traveltime="33.82" overlapTraveltime="34.19" density="20.04" overlapDensity="20.20" laneDensity="6.68" occupancy="3.24" waitingTime="0.00" timeLoss="3139.25" speed="12.91" speedRelative="0.93" departed="0" arrived="1463" entered="1463" left="0" laneChangedFrom="831" laneChangedTo="831" flow="931.10"/>
        <edge id="204a[0]" sampledSeconds="176306.42" traveltime="63.95" overlapTraveltime="64.51" density="162.37" overlapDensity="163.80" laneDensity="54.12" occupancy="26.18" waitingTime="94567.00" timeLoss="137404.47" speed="3.03" speedRelative="0.22" departed="0" arrived="0" entered="2733" left="2733" laneChangedFrom="694" laneChangedTo="694" flow="1739.53"/>
        <edge id="204b[0]" sampledSeconds="924.81" traveltime="0.02" overlapTraveltime="0.52" density="32.92" overlapDensity="545.45" laneDensity="10.97" occupancy="5.23" waitingTime="0.00" timeLoss="134.28" speed="9.87" speedRelative="0.71" departed="0" arrived="0" entered="1820" left="1820" laneChangedFrom="0" laneChangedTo="0" flow="1158.40"/>
        <edge id="206" sampledSeconds="3374.87" traveltime="9.06" overlapTraveltime="9.87" density="5.74" overlapDensity="6.25" laneDensity="5.74" occupancy="2.78" waitingTime="0.00" timeLoss="703.76" speed="10.16" speedRelative="0.73" departed="0" arrived="0" entered="342" left="342" laneChangedFrom="0" laneChangedTo="0" flow="217.68"/>
        <edge id="209" sampledSeconds="54325.86" traveltime="32.09" overlapTraveltime="32.47" density="24.02" overlapDensity="24.22" laneDensity="8.01" occupancy="3.90" waitingTime="52.00" timeLoss="5237.90" speed="12.36" speedRelative="0.89" departed="0" arrived="1679" entered="1679" left="0" laneChangedFrom="680" laneChangedTo="680" flow="1068.55"/>
        <edge id="210" sampledSeconds="62368.16" traveltime="31.66" overlapTraveltime="32.20" density="29.76" overlapDensity="30.27" laneDensity="9.92" occupancy="4.70" waitingTime="614.00" timeLoss="10389.14" speed="11.47" speedRelative="0.83" departed="1937" arrived="0" entered="0" left="1937" laneChangedFrom="644" laneChangedTo="644" flow="1232.89"/>
        <edge id="211" sampledSeconds="4388.84" traveltime="11.05" overlapTraveltime="11.80" density="5.44" overlapDensity="5.80" laneDensity="5.44" occupancy="2.67" waitingTime="0.00" timeLoss="464.22" speed="11.74" speedRelative="0.85" departed="0" arrived="0" entered="372" left="372" laneChangedFrom="0" laneChangedTo="0" flow="236.78"/>
        <edge id="212" sampledSeconds="0.00" departed="0" arrived="0" entered="0" left="0" laneChangedFrom="0" laneChangedTo="0"/>
        <edge id="218" sampledSeconds="0.00" departed="0" arrived="0" entered="0" left="0" laneChangedFrom="0" laneChangedTo="0"/>
        <edge id="219" sampledSeconds="0.00" departed="0" arrived="0" entered="0" left="0" laneChangedFrom="0" laneChangedTo="0"/>
        <edge id="21a" sampledSeconds="892.91" traveltime="2.35" overlapTraveltime="2.79" density="6.87" overlapDensity="8.16" laneDensity="6.87" occupancy="3.12" waitingTime="0.00" timeLoss="324.42" speed="8.68" speedRelative="0.63" departed="0" arrived="0" entered="320" left="320" laneChangedFrom="0" laneChangedTo="0" flow="203.68"/>
        <edge id="21b" sampledSeconds="7988.88" traveltime="10.46" overlapTraveltime="10.85" density="10.85" overlapDensity="11.26" laneDensity="10.85" occupancy="5.22" waitingTime="0.00" timeLoss="1000.87" speed="12.01" speedRelative="0.86" departed="0" arrived="0" entered="736" left="736" laneChangedFrom="0" laneChangedTo="0" flow="468.46"/>
        <edge id="22" sampledSeconds="16066.92" traveltime="22.26" overlapTraveltime="23.78" density="34.59" overlapDensity="36.94" laneDensity="34.59" occupancy="17.04" waitingTime="2739.00" timeLoss="11993.44" speed="3.44" speedRelative="0.25" departed="0" arrived="0" entered="676" left="676" laneChangedFrom="0" laneChangedTo="0" flow="430.27"/>
        <edge id="220" sampledSeconds="0.00" departed="0" arrived="0" entered="0" left="0" laneChangedFrom="0" laneChangedTo="0"/>
        <edge id="220b" sampledSeconds="0.00" departed="0" arrived="0" entered="0" left="0" laneChangedFrom="0" laneChangedTo="0"/>
        <edge id="222" sampledSeconds="0.00" departed="0" arrived="0" entered="0" left="0" laneChangedFrom="0" laneChangedTo="0"/>
        <edge id="224[0]" sampledSeconds="14816.40" traveltime="27.95" overlapTraveltime="28.33" density="7.96" overlapDensity="8.07" laneDensity="7.96" occupancy="3.72" waitingTime="0.00" timeLoss="2280.08" speed="11.63" speedRelative="0.84" departed="523" arrived="0" entered="0" left="523" laneChangedFrom="0" laneChangedTo="0" flow="332.89"/>
        <edge id="224[1]" sampledSeconds="6306.13" traveltime="11.44" overlapTraveltime="12.06" density="7.68" overlapDensity="8.10" laneDensity="7.68" occupancy="3.74" waitingTime="0.00" timeLoss="718.96" speed="11.81" speedRelative="0.85" departed="0" arrived="0" entered="523" left="523" laneChangedFrom="0" laneChangedTo="0" flow="332.89"/>
        <edge id="24" sampledSeconds="12809.62" traveltime="22.32" overlapTraveltime="23.12" density="15.85" overlapDensity="16.42" laneDensity="15.85" occupancy="7.77" waitingTime="2602.00" timeLoss="7055.84" speed="6.17" speedRelative="0.44" departed="0" arrived="0" entered="554" left="554" laneChangedFrom="0" laneChangedTo="0" flow="352.62"/>
        <edge id="26" sampledSeconds="0.00" departed="0" arrived="0" entered="0" left="0" laneChangedFrom="0" laneChangedTo="0"/>
        <edge id="28" sampledSeconds="0.00" departed="0" arrived="0" entered="0" left="0" laneChangedFrom="0" laneChangedTo="0"/>
        <edge id="3" sampledSeconds="500.31" traveltime="1.21" overlapTraveltime="1.58" density="4.36" overlapDensity="5.68" laneDensity="2.18" occupancy="1.05" waitingTime="0.00" timeLoss="30.61" speed="12.93" speedRelative="0.93" departed="0" arrived="0" entered="318" left="318" laneChangedFrom="25" laneChangedTo="25" flow="202.40"/>