<?xml version="1.0" encoding="UTF-8"?>

<!-- generated on 2026-03-09T10:20:57.002584-05:00 by Eclipse SUMO sumo 1.26.0
<sumoConfiguration xmlns:xsi="http://www.w3.org/2001/XMLSchema-instance" xsi:noNamespaceSchemaLocation="http://sumo.dlr.de/xsd/sumoConfiguration.xsd">

    <input>
        <net-file value="acosta_buslanes.net.xml"/>
        <route-files value="priced_routes2.rou.xml,acosta_busses.rou.xml"/>
        <additional-files value="acosta_vtypes.add.xml,acosta_detectors.add.xml,acosta_bus_stops.add.xml,acosta_tls.add.xml,priced_edgedata2.add.xml"/>
    </input>

    <output>
        <tripinfo-output value="tripinfos_priced2.xml"/>
    </output>

    <report>
        <no-warnings value="true"/>
        <no-step-log value="true"/>
    </report>

</sumoConfiguration>
-->

<meandata xmlns:xsi="http://www.w3.org/2001/XMLSchema-instance" xsi:noNamespaceSchemaLocation="http://sumo.dlr.de/xsd/meandata_file.xsd">
    <interval begin="0.00" end="5670.00" id="base">
        <edge id="1" sampledSeconds="1006.02" traveltime="0.03" overlapTraveltime="0.74" density="35.25" overlapDensity="363.64" laneDensity="17.62" occupancy="8.52" waitingTime="0.00" timeLoss="149.89" speed="6.84" speedRelative="0.49" departed="0" arrived="0" entered="1367" left="1367" laneChangedFrom="0" laneChangedTo="0" flow="867.94"/>
        <edge id="10" sampledSeconds="0.00" departed="0" arrived="0" entered="0" left="0" laneChangedFrom="0" laneChangedTo="0"/>
        <edge id="103" sampledSeconds="15747.71" traveltime="26.97" overlapTraveltime="29.01" density="18.73" overlapDensity="20.14" laneDensity="9.37" occupancy="4.65" waitingTime="7100.00" timeLoss="9958.92" speed="4.92" speedRelative="0.35" departed="0" arrived="0" entered="543" left="543" laneChangedFrom="9" laneChangedTo="9" flow="344.76"/>
        <edge id="104" sampledSeconds="17372.44" traveltime="24.75" overlapTraveltime="25.39" density="78.90" overlapDensity="80.97" laneDensity="39.45" occupancy="18.85" waitingTime="12422.00" timeLoss="15196.58" speed="1.68" speedRelative="0.12" departed="0" arrived="0" entered="684" left="684" laneChangedFrom="0" laneChangedTo="0" flow="434.29"/>
        <edge id="109[0]" sampledSeconds="664.69" traveltime="2.02" overlapTraveltime="2.48" density="3.86" overlapDensity="4.72" laneDensity="3.86" occupancy="2.13" waitingTime="0.00" timeLoss="63.43" speed="12.29" speedRelative="0.89" departed="0" arrived="0" entered="269" left="269" laneChangedFrom="0" laneChangedTo="0" flow="170.79"/>
        <edge id="109[1][0]+20003" sampledSeconds="1361.39" traveltime="4.43" overlapTraveltime="5.54" density="7.81" overlapDensity="8.93" laneDensity="3.91" occupancy="3.54" waitingTime="46.00" timeLoss="239.39" speed="6.41" speedRelative="0.46" departed="0" arrived="0" entered="269" left="269" laneChangedFrom="24" laneChangedTo="24" flow="170.79"/>
        <edge id="109[1][1]" sampledSeconds="723.37" traveltime="2.19" overlapTraveltime="2.72" density="4.15" overlapDensity="5.08" laneDensity="4.15" occupancy="2.33" waitingTime="0.00" timeLoss="100.28" speed="11.40" speedRelative="0.82" departed="0" arrived="0" entered="269" left="269" laneChangedFrom="0" laneChangedTo="0" flow="170.79"/>
        <edge id="11" sampledSeconds="47318.74" traveltime="45.44" overlapTraveltime="46.09" density="242.63" overlapDensity="246.03" laneDensity="80.88" occupancy="37.22" waitingTime="39847.00" timeLoss="44347.19" speed="0.84" speedRelative="0.06" departed="0" arrived="0" entered="1027" left="1027" laneChangedFrom="146" laneChangedTo="146" flow="652.06"/>
        <edge id="110" sampledSeconds="201.68" traveltime="7.50" overlapTraveltime="8.40" density="0.34" overlapDensity="0.38" laneDensity="0.34" occupancy="0.40" waitingTime="0.00" timeLoss="20.74" speed="12.46" speedRelative="0.90" departed="0" arrived="0" entered="24" left="24" laneChangedFrom="0" laneChangedTo="0" flow="15.24"/>
        <edge id="113" sampledSeconds="33737.23" traveltime="26.55" overlapTraveltime="27.16" density="72.40" overlapDensity="74.02" laneDensity="24.13" occupancy="11.84" waitingTime="22315.00" timeLoss="26003.87" speed="3.14" speedRelative="0.23" departed="0" arrived="0" entered="1243" left="1243" laneChangedFrom="404" laneChangedTo="404" flow="789.21"/>
        <edge id="114" sampledSeconds="90935.92" traveltime="55.15" overlapTraveltime="55.54" density="23.01" overlapDensity="23.12" laneDensity="7.67" occupancy="3.90" waitingTime="36.00" timeLoss="6838.12" speed="12.58" speedRelative="0.91" departed="0" arrived="1641" entered="1641" left="0" laneChangedFrom="1822" laneChangedTo="1822" flow="1041.83"/>
        <edge id="115" sampledSeconds="924.87" traveltime="36.22" overlapTraveltime="38.54" density="1.03" overlapDensity="1.09" laneDensity="1.03" occupancy="1.26" waitingTime="27.00" timeLoss="166.02" speed="4.19" speedRelative="0.30" departed="0" arrived="0" entered="24" left="24" laneChangedFrom="0" laneChangedTo="0" flow="15.24"/>
        <edge id="116" sampledSeconds="2230.78" traveltime="6.36" overlapTraveltime="6.78" density="4.94" overlapDensity="5.27" laneDensity="4.94" occupancy="2.61" waitingTime="0.00" timeLoss="308.09" speed="11.81" speedRelative="0.85" departed="0" arrived="0" entered="329" left="329" laneChangedFrom="0" laneChangedTo="0" flow="208.89"/>
        <edge id="117" sampledSeconds="21682.88" traveltime="39.31" overlapTraveltime="40.23" density="29.07" overlapDensity="29.75" laneDensity="29.07" occupancy="14.10" waitingTime="10989.00" timeLoss="16134.05" speed="3.32" speedRelative="0.24" departed="0" arrived="0" entered="539" left="539" laneChangedFrom="0" laneChangedTo="0" flow="342.22"/>
        <edge id="118" sampledSeconds="7185.04" traveltime="15.81" overlapTraveltime="16.26" density="9.59" overlapDensity="9.86" laneDensity="9.59" occupancy="4.62" waitingTime="1893.00" timeLoss="2941.83" speed="8.20" speedRelative="0.59" departed="0" arrived="0" entered="442" left="442" laneChangedFrom="0" laneChangedTo="0" flow="280.63"/>
        <edge id="119" sampledSeconds="1691.83" traveltime="14.22" overlapTraveltime="15.24" density="1.74" overlapDensity="1.87" laneDensity="1.74" occupancy="0.85" waitingTime="18.00" timeLoss="300.73" speed="10.81" speedRelative="0.78" departed="0" arrived="0" entered="111" left="111" laneChangedFrom="0" laneChangedTo="0" flow="70.48"/>
        <edge id="12" sampledSeconds="0.00" departed="0" arrived="0" entered="0" left="0" laneChangedFrom="0" laneChangedTo="0"/>
        <edge id="120" sampledSeconds="1826.37" traveltime="34.66" overlapTraveltime="35.81" density="1.95" overlapDensity="2.01" laneDensity="1.95" occupancy="0.95" waitingTime="977.00" timeLoss="1184.49" speed="4.60" speedRelative="0.33" departed="0" arrived="0" entered="51" left="51" laneChangedFrom="0" laneChangedTo="0" flow="32.38"/>
        <edge id="121" sampledSeconds="6696.23" traveltime="149.47" overlapTraveltime="152.19" density="1.67" overlapDensity="1.70" laneDensity="1.67" occupancy="2.00" waitingTime="1630.00" timeLoss="2700.96" speed="4.64" speedRelative="0.33" departed="44" arrived="0" entered="0" left="44" laneChangedFrom="0" laneChangedTo="0" flow="27.94"/>
        <edge id="122" sampledSeconds="30038.83" traveltime="17.09" overlapTraveltime="17.61" density="24.26" overlapDensity="25.00" laneDensity="8.09" occupancy="3.92" waitingTime="195.00" timeLoss="3123.34" speed="12.31" speedRelative="0.89" departed="0" arrived="0" entered="1706" left="1706" laneChangedFrom="220" laneChangedTo="220" flow="1083.17"/>
        <edge id="124" sampledSeconds="2473.06" traveltime="2.31" overlapTraveltime="2.71" density="14.09" overlapDensity="16.54" laneDensity="7.05" occupancy="3.35" waitingTime="0.00" timeLoss="395.49" speed="11.51" speedRelative="0.83" departed="0" arrived="0" entered="913" left="913" laneChangedFrom="15" laneChangedTo="15" flow="579.68"/>
        <edge id="125" sampledSeconds="86.58" traveltime="1.08" overlapTraveltime="2.01" density="0.66" overlapDensity="1.24" laneDensity="0.33" occupancy="0.37" waitingTime="0.00" timeLoss="11.36" speed="12.07" speedRelative="0.87" departed="0" arrived="0" entered="43" left="43" laneChangedFrom="1" laneChangedTo="1" flow="27.30"/>
        <edge id="127" sampledSeconds="2564.19" traveltime="2.68" overlapTraveltime="3.55" density="21.80" overlapDensity="28.84" laneDensity="10.90" occupancy="5.47" waitingTime="136.00" timeLoss="1200.80" speed="5.79" speedRelative="0.42" departed="0" arrived="0" entered="723" left="723" laneChangedFrom="171" laneChangedTo="171" flow="459.05"/>
        <edge id="13" sampledSeconds="3582.63" traveltime="4.51" overlapTraveltime="5.24" density="23.59" overlapDensity="27.39" laneDensity="23.59" occupancy="9.99" waitingTime="446.00" timeLoss="2190.37" speed="5.33" speedRelative="0.38" departed="495" arrived="0" entered="189" left="684" laneChangedFrom="0" laneChangedTo="0" flow="434.29"/>
        <edge id="131" sampledSeconds="17888.66" traveltime="114.97" overlapTraveltime="116.12" density="9.55" overlapDensity="9.65" laneDensity="9.55" occupancy="4.63" waitingTime="11625.00" timeLoss="14161.53" speed="2.86" speedRelative="0.21" departed="154" arrived="0" entered="0" left="154" laneChangedFrom="0" laneChangedTo="0" flow="97.78"/>
        <edge id="133" sampledSeconds="1157.02" traveltime="47.15" overlapTraveltime="48.21" density="1.27" overlapDensity="1.30" laneDensity="1.27" occupancy="1.48" waitingTime="124.00" timeLoss="384.76" speed="3.51" speedRelative="0.25" departed="24" arrived="0" entered="0" left="24" laneChangedFrom="0" laneChangedTo="0" flow="15.24"/>
        <edge id="134" sampledSeconds="1078.91" traveltime="1.62" overlapTraveltime="2.13" density="12.72" overlapDensity="16.82" laneDensity="12.72" occupancy="5.98" waitingTime="77.00" timeLoss="475.13" speed="7.73" speedRelative="0.56" departed="0" arrived="0" entered="504" left="504" laneChangedFrom="0" laneChangedTo="0" flow="320.00"/>
        <edge id="134b" sampledSeconds="7521.77" traveltime="14.66" overlapTraveltime="15.15" density="8.29" overlapDensity="8.44" laneDensity="8.29" occupancy="4.88" waitingTime="268.00" timeLoss="1099.52" speed="10.77" speedRelative="0.78" departed="0" arrived="504" entered="504" left="0" laneChangedFrom="0" laneChangedTo="0" flow="319.87"/>
        <edge id="135" sampledSeconds="0.00" departed="0" arrived="0" entered="0" left="0" laneChangedFrom="0" laneChangedTo="0"/>
        <edge id="136" sampledSeconds="13882.42" traveltime="15.60" overlapTraveltime="15.97" density="12.86" overlapDensity="13.08" laneDensity="12.86" occupancy="6.14" waitingTime="0.00" timeLoss="1808.25" speed="12.02" speedRelative="0.87" departed="0" arrived="875" entered="875" left="0" laneChangedFrom="0" laneChangedTo="0" flow="555.44"/>
        <edge id="137" sampledSeconds="0.00" departed="0" arrived="0" entered="0" left="0" laneChangedFrom="0" laneChangedTo="0"/>
        <edge id="138" sampledSeconds="0.00" departed="0" arrived="0" entered="0" left="0" laneChangedFrom="0" laneChangedTo="0"/>
        <edge id="14" sampledSeconds="4225.14" traveltime="6.24" overlapTraveltime="6.61" density="9.13" overlapDensity="9.52" laneDensity="9.13" occupancy="4.37" waitingTime="0.00" timeLoss="363.04" speed="12.57" speedRelative="0.91" departed="0" arrived="650" entered="650" left="0" laneChangedFrom="0" laneChangedTo="0" flow="412.47"/>
        <edge id="15" sampledSeconds="37504.23" traveltime="77.14" overlapTraveltime="77.98" density="71.57" overlapDensity="72.34" laneDensity="71.57" occupancy="35.02" waitingTime="26943.00" timeLoss="33963.24" speed="1.24" speedRelative="0.09" departed="0" arrived="0" entered="481" left="481" laneChangedFrom="0" laneChangedTo="0" flow="305.40"/>
        <edge id="153" sampledSeconds="13026.74" traveltime="72.41" overlapTraveltime="73.18" density="5.74" overlapDensity="5.80" laneDensity="5.74" occupancy="2.78" waitingTime="6439.00" timeLoss="7787.27" speed="5.48" speedRelative="0.39" departed="0" arrived="0" entered="178" left="178" laneChangedFrom="0" laneChangedTo="0" flow="113.02"/>
        <edge id="159" sampledSeconds="12802.92" traveltime="23.07" overlapTraveltime="23.53" density="9.72" overlapDensity="9.92" laneDensity="9.72" occupancy="4.72" waitingTime="1723.00" timeLoss="3697.03" speed="9.88" speedRelative="0.71" departed="0" arrived="0" entered="544" left="544" laneChangedFrom="0" laneChangedTo="0" flow="345.40"/>
        <edge id="16" sampledSeconds="5022.98" traveltime="9.65" overlapTraveltime="10.07" density="9.29" overlapDensity="9.69" laneDensity="9.29" occupancy="4.47" waitingTime="689.00" timeLoss="1542.05" speed="9.57" speedRelative="0.69" departed="0" arrived="0" entered="499" left="499" laneChangedFrom="0" laneChangedTo="0" flow="316.83"/>
        <edge id="160" sampledSeconds="32341.69" traveltime="34.31" overlapTraveltime="35.08" density="24.51" overlapDensity="25.06" laneDensity="24.51" occupancy="11.97" waitingTime="5879.00" timeLoss="16423.12" speed="6.63" speedRelative="0.48" departed="0" arrived="0" entered="922" left="922" laneChangedFrom="0" laneChangedTo="0" flow="585.40"/>
        <edge id="161" sampledSeconds="27740.57" traveltime="15.54" overlapTraveltime="15.93" density="24.79" overlapDensity="25.41" laneDensity="8.26" occupancy="3.99" waitingTime="0.00" timeLoss="2689.95" speed="12.40" speedRelative="0.89" departed="0" arrived="0" entered="1742" left="1742" laneChangedFrom="1067" laneChangedTo="1067" flow="1106.03"/>
        <edge id="165" sampledSeconds="0.00" departed="0" arrived="0" entered="0" left="0" laneChangedFrom="0" laneChangedTo="0"/>
        <edge id="166" sampledSeconds="0.00" departed="0" arrived="0" entered="0" left="0" laneChangedFrom="0" laneChangedTo="0"/>
        <edge id="17" sampledSeconds="4799.93" traveltime="11.72" overlapTraveltime="12.34" density="6.04" overlapDensity="6.36" laneDensity="3.02" occupancy="1.46" waitingTime="173.00" timeLoss="894.38" speed="11.18" speedRelative="0.80" departed="0" arrived="0" entered="389" left="389" laneChangedFrom="16" laneChangedTo="16" flow="246.98"/>
        <edge id="171" sampledSeconds="9724.47" traveltime="54.62" overlapTraveltime="55.57" density="9.70" overlapDensity="9.87" laneDensity="9.70" occupancy="4.70" waitingTime="6098.00" timeLoss="7355.26" speed="3.22" speedRelative="0.23" departed="0" arrived="0" entered="175" left="175" laneChangedFrom="0" laneChangedTo="0" flow="111.11"/>
        <edge id="173" sampledSeconds="0.00" departed="0" arrived="0" entered="0" left="0" laneChangedFrom="0" laneChangedTo="0"/>
        <edge id="179" sampledSeconds="0.00" departed="0" arrived="0" entered="0" left="0" laneChangedFrom="0" laneChangedTo="0"/>
        <edge id="18" sampledSeconds="11777.20" traveltime="21.75" overlapTraveltime="22.52" density="76.65" overlapDensity="79.37" laneDensity="38.32" occupancy="17.76" waitingTime="8764.00" timeLoss="10435.06" speed="1.38" speedRelative="0.10" departed="0" arrived="0" entered="523" left="523" laneChangedFrom="0" laneChangedTo="0" flow="332.06"/>
        <edge id="180" sampledSeconds="17556.47" traveltime="19.28" overlapTraveltime="20.06" density="14.41" overlapDensity="14.99" laneDensity="14.41" occupancy="6.97" waitingTime="0.00" timeLoss="3847.04" speed="10.53" speedRelative="0.76" departed="0" arrived="0" entered="875" left="875" laneChangedFrom="0" laneChangedTo="0" flow="555.56"/>
        <edge id="181" sampledSeconds="5964.85" traveltime="9.19" overlapTraveltime="11.41" density="13.04" overlapDensity="16.17" laneDensity="6.52" occupancy="3.30" waitingTime="1846.00" timeLoss="3306.74" speed="6.13" speedRelative="0.44" departed="0" arrived="0" entered="523" left="523" laneChangedFrom="389" laneChangedTo="389" flow="332.06"/>
        <edge id="185" sampledSeconds="126.31" traveltime="4.36" overlapTraveltime="5.26" density="0.32" overlapDensity="0.39" laneDensity="0.32" occupancy="0.38" waitingTime="0.00" timeLoss="5.69" speed="13.26" speedRelative="0.95" departed="0" arrived="0" entered="24" left="24" laneChangedFrom="0" laneChangedTo="0" flow="15.24"/>
        <edge id="186" sampledSeconds="1382.30" traveltime="4.69" overlapTraveltime="5.14" density="3.85" overlapDensity="4.22" laneDensity="3.85" occupancy="2.12" waitingTime="0.00" timeLoss="127.78" speed="12.33" speedRelative="0.89" departed="0" arrived="0" entered="269" left="269" laneChangedFrom="0" laneChangedTo="0" flow="170.79"/>
        <edge id="187" sampledSeconds="921.35" traveltime="37.27" overlapTraveltime="38.39" density="1.87" overlapDensity="1.93" laneDensity="1.87" occupancy="2.24" waitingTime="98.00" timeLoss="274.99" speed="2.51" speedRelative="0.18" departed="0" arrived="0" entered="24" left="24" laneChangedFrom="0" laneChangedTo="0" flow="15.24"/>
        <edge id="188" sampledSeconds="1713.48" traveltime="6.99" overlapTraveltime="7.45" density="3.36" overlapDensity="3.58" laneDensity="3.36" occupancy="1.89" waitingTime="0.00" timeLoss="187.95" speed="12.08" speedRelative="0.87" departed="0" arrived="0" entered="230" left="230" laneChangedFrom="0" laneChangedTo="0" flow="146.03"/>
        <edge id="189[0]" sampledSeconds="219.14" traveltime="0.41" overlapTraveltime="1.05" density="3.26" overlapDensity="7.62" laneDensity="3.26" occupancy="2.17" waitingTime="18.00" timeLoss="37.12" speed="11.29" speedRelative="0.81" departed="0" arrived="0" entered="230" left="230" laneChangedFrom="0" laneChangedTo="0" flow="146.03"/>
        <edge id="189[1][0]+20000" sampledSeconds="1491.54" traveltime="5.80" overlapTraveltime="7.17" density="8.07" overlapDensity="9.02" laneDensity="4.03" occupancy="3.95" waitingTime="124.00" timeLoss="341.33" speed="5.37" speedRelative="0.39" departed="0" arrived="0" entered="230" left="230" laneChangedFrom="28" laneChangedTo="28" flow="146.03"/>
        <edge id="189[1][1]" sampledSeconds="6160.27" traveltime="26.10" overlapTraveltime="26.78" density="6.17" overlapDensity="6.33" laneDensity="6.17" occupancy="3.49" waitingTime="2335.00" timeLoss="3154.91" speed="6.62" speedRelative="0.48" departed="0" arrived="0" entered="230" left="230" laneChangedFrom="0" laneChangedTo="0" flow="146.03"/>
        <edge id="19" sampledSeconds="1329.81" traveltime="19.82" overlapTraveltime="21.11" density="3.18" overlapDensity="3.39" laneDensity="3.18" occupancy="1.57" waitingTime="665.00" timeLoss="953.01" speed="3.51" speedRelative="0.25" departed="0" arrived="0" entered="63" left="63" laneChangedFrom="0" laneChangedTo="0" flow="40.00"/>
        <edge id="190" sampledSeconds="1033.38" traveltime="42.00" overlapTraveltime="43.06" density="0.80" overlapDensity="0.82" laneDensity="0.80" occupancy="0.96" waitingTime="5.00" timeLoss="149.55" speed="5.43" speedRelative="0.39" departed="0" arrived="0" entered="24" left="24" laneChangedFrom="0" laneChangedTo="0" flow="15.24"/>
        <edge id="191" sampledSeconds="0.00" departed="0" arrived="0" entered="0" left="0" laneChangedFrom="0" laneChangedTo="0"/>
        <edge id="194" sampledSeconds="630.31" traveltime="16.70" overlapTraveltime="17.51" density="0.60" overlapDensity="0.63" laneDensity="0.60" occupancy="0.29" waitingTime="39.00" timeLoss="140.86" speed="10.34" speedRelative="0.74" departed="0" arrived="0" entered="36" left="36" laneChangedFrom="0" laneChangedTo="0" flow="22.86"/>
        <edge id="195" sampledSeconds="1174.96" traveltime="12.58" overlapTraveltime="13.06" density="1.57" overlapDensity="1.63" laneDensity="1.57" occupancy="0.71" waitingTime="0.00" timeLoss="314.69" speed="10.09" speedRelative="0.73" departed="90" arrived="0" entered="0" left="90" laneChangedFrom="0" laneChangedTo="0" flow="57.14"/>
        <edge id="197" sampledSeconds="0.00" departed="0" arrived="0" entered="0" left="0" laneChangedFrom="0" laneChangedTo="0"/>
        <edge id="1b" sampledSeconds="34224.03" traveltime="24.35" overlapTraveltime="25.04" density="97.19" overlapDensity="99.92" laneDensity="48.60" occupancy="23.40" waitingTime="20836.00" timeLoss="27730.06" speed="2.61" speedRelative="0.19" departed="0" arrived="0" entered="1367" left="1367" laneChangedFrom="134" laneChangedTo="134" flow="867.94"/>
        <edge id="2" sampledSeconds="6285.90" traveltime="17.60" overlapTraveltime="18.54" density="26.52" overlapDensity="27.94" laneDensity="8.84" occupancy="4.35" waitingTime="4144.00" timeLoss="5048.34" speed="2.40" speedRelative="0.17" departed="0" arrived="0" entered="339" left="339" laneChangedFrom="116" laneChangedTo="116" flow="215.24"/>
        <edge id="20" sampledSeconds="0.00" departed="0" arrived="0" entered="0" left="0" laneChangedFrom="0" laneChangedTo="0"/>
        <edge id="200" sampledSeconds="3551.79" traveltime="7.25" overlapTraveltime="7.64" density="7.17" overlapDensity="7.55" laneDensity="7.17" occupancy="3.43" waitingTime="0.00" timeLoss="587.77" speed="11.50" speedRelative="0.83" departed="0" arrived="0" entered="465" left="465" laneChangedFrom="0" laneChangedTo="0" flow="295.24"/>
        <edge id="20001+87[1][0]" sampledSeconds="1968.37" traveltime="4.22" overlapTraveltime="5.19" density="10.31" overlapDensity="11.79" laneDensity="5.15" occupancy="4.28" waitingTime="33.00" timeLoss="368.20" speed="7.20" speedRelative="0.52" departed="0" arrived="0" entered="408" left="408" laneChangedFrom="28" laneChangedTo="28" flow="259.05"/>
        <edge id="20002+89[1][0]" sampledSeconds="1190.09" traveltime="4.45" overlapTraveltime="5.70" density="7.74" overlapDensity="8.89" laneDensity="3.87" occupancy="3.70" waitingTime="19.00" timeLoss="208.25" speed="5.74" speedRelative="0.41" departed="0" arrived="0" entered="233" left="233" laneChangedFrom="24" laneChangedTo="24" flow="147.94"/>
        <edge id="201" sampledSeconds="81015.53" traveltime="58.70" overlapTraveltime="59.31" density="61.12" overlapDensity="61.76" laneDensity="20.37" occupancy="9.92" waitingTime="41812.00" timeLoss="57446.08" speed="3.98" speedRelative="0.29" departed="0" arrived="0" entered="1366" left="1366" laneChangedFrom="696" laneChangedTo="696" flow="867.30"/>
        <edge id="201c" sampledSeconds="2692.99" traveltime="1.47" overlapTraveltime="1.98" density="43.46" overlapDensity="58.21" laneDensity="14.49" occupancy="6.96" waitingTime="827.00" timeLoss="1403.24" speed="6.59" speedRelative="0.47" departed="0" arrived="0" entered="1366" left="1366" laneChangedFrom="24" laneChangedTo="24" flow="867.30"/>
        <edge id="202" sampledSeconds="34406.50" traveltime="26.65" overlapTraveltime="29.02" density="33.42" overlapDensity="36.38" laneDensity="11.14" occupancy="5.65" waitingTime="11705.00" timeLoss="19545.26" speed="5.92" speedRelative="0.43" departed="0" arrived="0" entered="1186" left="1186" laneChangedFrom="391" laneChangedTo="391" flow="753.02"/>
        <edge id="203[0]" sampledSeconds="127819.97" traveltime="82.87" overlapTraveltime="83.43" density="55.81" overlapDensity="56.19" laneDensity="18.60" occupancy="8.95" waitingTime="57094.00" timeLoss="82727.12" speed="4.87" speedRelative="0.35" departed="1532" arrived="0" entered="0" left="1532" laneChangedFrom="1017" laneChangedTo="1017" flow="972.70"/>
        <edge id="203[1]" sampledSeconds="38515.72" traveltime="44.85" overlapTraveltime="45.48" density="29.16" overlapDensity="29.57" laneDensity="9.72" occupancy="4.75" waitingTime="18475.00" timeLoss="24031.86" speed="5.16" speedRelative="0.37" departed="0" arrived="0" entered="847" left="847" laneChangedFrom="573" laneChangedTo="573" flow="537.78"/>
        <edge id="203[1]b" sampledSeconds="417.44" traveltime="0.02" overlapTraveltime="0.50" density="14.99" overlapDensity="368.11" laneDensity="5.00" occupancy="2.36" waitingTime="0.00" timeLoss="109.09" speed="10.22" speedRelative="0.74" departed="0" arrived="0" entered="847" left="847" laneChangedFrom="0" laneChangedTo="0" flow="537.74"/>
        <edge id="204[1][0]" sampledSeconds="635.17" traveltime="0.04" overlapTraveltime="0.44" density="20.86" overlapDensity="207.45" laneDensity="10.43" occupancy="5.04" waitingTime="0.00" timeLoss="62.01" speed="12.43" speedRelative="0.90" departed="0" arrived="0" entered="1463" left="1463" laneChangedFrom="3" laneChangedTo="3" flow="928.88"/>
        <edge id="204[1][1]" sampledSeconds="49886.56" traveltime="33.83" overlapTraveltime="34.20" density="20.00" overlapDensity="20.16" laneDensity="6.67" occupancy="3.23" waitingTime="0.00" timeLoss="3156.88" speed="12.90" speedRelative="0.93" departed="0" arrived="1463" entered="1463" left="0" laneChangedFrom="835" laneChangedTo="835" flow="928.79"/>
        <edge id="204a[0]" sampledSeconds="176428.33" traveltime="63.99" overlapTraveltime="64.55" density="162.08" overlapDensity="163.51" laneDensity="54.03" occupancy="26.11" waitingTime="95488.00" timeLoss="137526.57" speed="3.02" speedRelative="0.22" departed="0" arrived="0" entered="2733" left="2733" laneChangedFrom="670" laneChangedTo="670" flow="1735.24"/>
        <edge id="204b[0]" sampledSeconds="928.28" traveltime="0.02" overlapTraveltime="0.52" density="32.86" overlapDensity="545.45" laneDensity="10.95" occupancy="5.24" waitingTime="0.00" timeLoss="134.98" speed="9.86" speedRelative="0.71" departed="0" arrived="0" entered="1820" left="1820" laneChangedFrom="0" laneChangedTo="0" flow="1155.53"/>
        <edge id="206" sampledSeconds="1738.76" traveltime="8.99" overlapTraveltime="10.11" density="2.86" overlapDensity="3.21" laneDensity="2.86" occupancy="1.39" waitingTime="42.00" timeLoss="393.18" speed="9.92" speedRelative="0.71" departed="0" arrived="0" entered="172" left="172" laneChangedFrom="0" laneChangedTo="0" flow="109.21"/>
        <edge id="209" sampledSeconds="53825.16" traveltime="31.79" overlapTraveltime="32.17" density="23.73" overlapDensity="23.94" laneDensity="7.91" occupancy="3.86" waitingTime="61.00" timeLoss="4728.50" speed="12.48" speedRelative="0.90" departed="0" arrived="1679" entered="1679" left="0" laneChangedFrom="802" laneChangedTo="802" flow="1065.91"/>
        <edge id="210" sampledSeconds="62482.87" traveltime="31.71" overlapTraveltime="32.26" density="29.74" overlapDensity="30.25" laneDensity="9.91" occupancy="4.69" waitingTime="650.00" timeLoss="10506.84" speed="11.44" speedRelative="0.82" departed="1937" arrived="0" entered="0" left="1937" laneChangedFrom="674" laneChangedTo="674" flow="1229.84"/>
        <edge id="211" sampledSeconds="2123.97" traveltime="10.87" overlapTraveltime="11.61" density="2.62" overlapDensity="2.80" laneDensity="2.62" occupancy="1.29" waitingTime="0.00" timeLoss="185.17" speed="11.94" speedRelative="0.86" departed="0" arrived="0" entered="183" left="183" laneChangedFrom="0" laneChangedTo="0" flow="116.19"/>
        <edge id="212" sampledSeconds="0.00" departed="0" arrived="0" entered="0" left="0" laneChangedFrom="0" laneChangedTo="0"/>
        <edge id="218" sampledSeconds="4881.00" traveltime="10.85" overlapTraveltime="11.68" density="7.11" overlapDensity="7.65" laneDensity="7.11" occupancy="3.44" waitingTime="54.00" timeLoss="1129.13" speed="10.05" speedRelative="0.72" departed="0" arrived="0" entered="418" left="418" laneChangedFrom="0" laneChangedTo="0" flow="265.40"/>
        <edge id="219" sampledSeconds="3985.93" traveltime="8.66" overlapTraveltime="9.54" density="7.32" overlapDensity="8.06" laneDensity="7.32" occupancy="3.57" waitingTime="0.00" timeLoss="942.78" speed="9.65" speedRelative="0.70" departed="0" arrived="0" entered="418" left="418" laneChangedFrom="0" laneChangedTo="0" flow="265.40"/>
        <edge id="21a" sampledSeconds="879.61" traveltime="2.33" overlapTraveltime="2.78" density="6.74" overlapDensity="8.02" laneDensity="6.74" occupancy="3.07" waitingTime="0.00" timeLoss="316.68" speed="8.73" speedRelative="0.63" departed="0" arrived="0" entered="317" left="317" laneChangedFrom="0" laneChangedTo="0" flow="201.27"/>
        <edge id="21b" sampledSeconds="5787.09" traveltime="10.27" overlapTraveltime="10.66" density="7.84" overlapDensity="8.13" laneDensity="7.84" occupancy="3.79" waitingTime="0.00" timeLoss="632.96" speed="12.23" speedRelative="0.88" departed="0" arrived="0" entered="543" left="543" laneChangedFrom="0" laneChangedTo="0" flow="344.76"/>
        <edge id="22" sampledSeconds="7208.26" traveltime="10.72" overlapTraveltime="11.60" density="15.29" overlapDensity="16.53" laneDensity="15.29" occupancy="7.65" waitingTime="715.03" timeLoss="3451.78" speed="7.06" speedRelative="0.51" departed="0" arrived="0" entered="622" left="622" laneChangedFrom="0" laneChangedTo="0" flow="394.92"/>
        <edge id="220" sampledSeconds="0.00" departed="0" arrived="0" entered="0" left="0" laneChangedFrom="0" laneChangedTo="0"/>
        <edge id="220b" sampledSeconds="0.00" departed="0" arrived="0" entered="0" left="0" laneChangedFrom="0" laneChangedTo="0"/>
        <edge id="222" sampledSeconds="0.00" departed="0" arrived="0" entered="0" left="0" laneChangedFrom="0" laneChangedTo="0"/>
        <edge id="224[0]" sampledSeconds="14839.73" traveltime="27.99" overlapTraveltime="28.37" density="7.95" overlapDensity="8.06" laneDensity="7.95" occupancy="3.72" waitingTime="0.00" timeLoss="2303.42" speed="11.61" speedRelative="0.84" departed="523" arrived="0" entered="0" left="523" laneChangedFrom="0" laneChangedTo="0" flow="332.06"/>
        <edge id="224[1]" sampledSeconds="6299.88" traveltime="11.43" overlapTraveltime="12.05" density="7.66" overlapDensity="8.07" laneDensity="7.66" occupancy="3.73" waitingTime="0.00" timeLoss="713.74" speed="11.83" speedRelative="0.85" departed="0" arrived="0" entered="523" left="523" laneChangedFrom="0" laneChangedTo="0" flow="332.06"/>
        <edge id="24" sampledSeconds="6921.30" traveltime="11.96" overlapTraveltime="12.38" density="8.55" overlapDensity="8.85" laneDensity="8.55" occupancy="4.13" waitingTime="65.00" timeLoss="1114.92" speed="11.53" speedRelative="0.83" departed="0" arrived="0" entered="559" left="559" laneChangedFrom="0" laneChangedTo="0" flow="354.92"/>
        <edge id="26" sampledSeconds="0.00" departed="0" arrived="0" entered="0" left="0" laneChangedFrom="0" laneChangedTo="0"/>