<?xml version="1.0" encoding="UTF-8"?>

<!-- generated on 2026-03-09T10:19:57.368235-05:00 by Eclipse SUMO sumo 1.26.0
<sumoConfiguration xmlns:xsi="http://www.w3.org/2001/XMLSchema-instance" xsi:noNamespaceSchemaLocation="http://sumo.dlr.de/xsd/sumoConfiguration.xsd">

    <input>
        <net-file value="acosta_buslanes.net.xml"/>
        <route-files value="priced_routes.rou.xml,acosta_busses.rou.xml"/>
        <additional-files value="acosta_vtypes.add.xml,acosta_detectors.add.xml,acosta_bus_stops.add.xml,acosta_tls.add.xml,priced_edgedata.add.xml"/>
    </input>

    <output>
        <tripinfo-output value="tripinfos_priced.xml"/>
    </output>

    <report>
        <no-warnings value="true"/>
        <no-step-log value="true"/>
    </report>

</sumoConfiguration>
-->

<meandata xmlns:xsi="http://www.w3.org/2001/XMLSchema-instance" xsi:noNamespaceSchemaLocation="http://sumo.dlr.de/xsd/meandata_file.xsd">
    <interval begin="0.00" end="5742.00" id="base">
        <edge id="1" sampledSeconds="1012.19" traveltime="0.03" overlapTraveltime="0.74" density="34.93" overlapDensity="363.64" laneDensity="17.47" occupancy="8.47" waitingTime="0.00" timeLoss="156.30" speed="6.79" speedRelative="0.49" departed="0" arrived="0" entered="1366" left="1366" laneChangedFrom="0" laneChangedTo="0" flow="856.39"/>
        <edge id="10" sampledSeconds="0.00" departed="0" arrived="0" entered="0" left="0" laneChangedFrom="0" laneChangedTo="0"/>
        <edge id="103" sampledSeconds="15755.12" traveltime="26.82" overlapTraveltime="29.08" density="18.36" overlapDensity="19.90" laneDensity="9.18" occupancy="4.55" waitingTime="7118.00" timeLoss="9976.34" speed="4.91" speedRelative="0.35" departed="0" arrived="0" entered="542" left="542" laneChangedFrom="9" laneChangedTo="9" flow="339.81"/>
        <edge id="104" sampledSeconds="17413.06" traveltime="24.82" overlapTraveltime="25.46" density="78.14" overlapDensity="80.14" laneDensity="39.07" occupancy="18.74" waitingTime="12626.00" timeLoss="15251.52" speed="1.68" speedRelative="0.12" departed="0" arrived="0" entered="684" left="684" laneChangedFrom="0" laneChangedTo="0" flow="428.84"/>
        <edge id="109[0]" sampledSeconds="1602.82" traveltime="2.16" overlapTraveltime="2.61" density="9.31" overlapDensity="11.25" laneDensity="9.31" occupancy="4.77" waitingTime="0.00" timeLoss="253.06" speed="11.50" speedRelative="0.83" departed="0" arrived="0" entered="615" left="615" laneChangedFrom="0" laneChangedTo="0" flow="385.58"/>
        <edge id="109[1][0]+20003" sampledSeconds="2406.09" traveltime="3.37" overlapTraveltime="4.14" density="13.41" overlapDensity="15.59" laneDensity="6.70" occupancy="4.89" waitingTime="54.00" timeLoss="483.59" speed="8.19" speedRelative="0.59" departed="0" arrived="0" entered="615" left="615" laneChangedFrom="24" laneChangedTo="24" flow="385.58"/>
        <edge id="109[1][1]" sampledSeconds="1864.82" traveltime="2.50" overlapTraveltime="3.04" density="10.67" overlapDensity="12.94" laneDensity="10.67" occupancy="5.52" waitingTime="0.00" timeLoss="422.52" speed="9.97" speedRelative="0.72" departed="0" arrived="0" entered="615" left="615" laneChangedFrom="0" laneChangedTo="0" flow="385.58"/>
        <edge id="11" sampledSeconds="45817.51" traveltime="43.98" overlapTraveltime="44.63" density="231.88" overlapDensity="235.24" laneDensity="77.29" occupancy="35.67" waitingTime="38494.00" timeLoss="42843.23" speed="0.87" speedRelative="0.06" departed="0" arrived="0" entered="1027" left="1027" laneChangedFrom="144" laneChangedTo="144" flow="643.89"/>
        <edge id="110" sampledSeconds="200.77" traveltime="7.46" overlapTraveltime="8.37" density="0.34" overlapDensity="0.38" laneDensity="0.34" occupancy="0.39" waitingTime="0.00" timeLoss="19.82" speed="12.52" speedRelative="0.90" departed="0" arrived="0" entered="24" left="24" laneChangedFrom="0" laneChangedTo="0" flow="15.05"/>
        <edge id="113" sampledSeconds="41439.55" traveltime="29.15" overlapTraveltime="29.75" density="87.98" overlapDensity="89.79" laneDensity="29.33" occupancy="14.28" waitingTime="27249.00" timeLoss="32772.97" speed="2.86" speedRelative="0.21" departed="0" arrived="0" entered="1393" left="1393" laneChangedFrom="607" laneChangedTo="607" flow="873.35"/>
        <edge id="114" sampledSeconds="91095.19" traveltime="55.25" overlapTraveltime="55.64" density="22.76" overlapDensity="22.87" laneDensity="7.59" occupancy="3.86" waitingTime="34.00" timeLoss="7003.49" speed="12.56" speedRelative="0.90" departed="0" arrived="1641" entered="1641" left="0" laneChangedFrom="1838" laneChangedTo="1838" flow="1028.77"/>
        <edge id="115" sampledSeconds="934.86" traveltime="36.61" overlapTraveltime="38.95" density="1.02" overlapDensity="1.09" laneDensity="1.02" occupancy="1.26" waitingTime="28.00" timeLoss="176.02" speed="4.14" speedRelative="0.30" departed="0" arrived="0" entered="24" left="24" laneChangedFrom="0" laneChangedTo="0" flow="15.05"/>
        <edge id="116" sampledSeconds="3243.79" traveltime="6.33" overlapTraveltime="6.74" density="7.10" overlapDensity="7.57" laneDensity="7.10" occupancy="3.65" waitingTime="0.00" timeLoss="438.53" speed="11.84" speedRelative="0.85" departed="0" arrived="0" entered="481" left="481" laneChangedFrom="0" laneChangedTo="0" flow="301.57"/>
        <edge id="117" sampledSeconds="13160.33" traveltime="32.91" overlapTraveltime="33.83" density="17.35" overlapDensity="17.83" laneDensity="17.35" occupancy="8.45" waitingTime="6549.00" timeLoss="9163.01" speed="3.94" speedRelative="0.28" departed="0" arrived="0" entered="389" left="389" laneChangedFrom="0" laneChangedTo="0" flow="243.89"/>
        <edge id="118" sampledSeconds="7418.32" traveltime="16.20" overlapTraveltime="16.78" density="9.70" overlapDensity="10.05" laneDensity="9.70" occupancy="4.71" waitingTime="1737.00" timeLoss="3175.10" speed="7.95" speedRelative="0.57" departed="0" arrived="0" entered="442" left="442" laneChangedFrom="0" laneChangedTo="0" flow="277.12"/>
        <edge id="119" sampledSeconds="1999.19" traveltime="16.82" overlapTraveltime="18.01" density="2.03" overlapDensity="2.18" laneDensity="2.03" occupancy="1.00" waitingTime="237.00" timeLoss="614.01" speed="9.15" speedRelative="0.66" departed="0" arrived="0" entered="111" left="111" laneChangedFrom="0" laneChangedTo="0" flow="69.59"/>
        <edge id="12" sampledSeconds="0.00" departed="0" arrived="0" entered="0" left="0" laneChangedFrom="0" laneChangedTo="0"/>
        <edge id="120" sampledSeconds="11117.03" traveltime="44.29" overlapTraveltime="45.38" density="11.82" overlapDensity="12.11" laneDensity="11.82" occupancy="5.77" waitingTime="6075.00" timeLoss="8042.28" speed="3.63" speedRelative="0.26" departed="0" arrived="0" entered="245" left="245" laneChangedFrom="0" laneChangedTo="0" flow="153.61"/>
        <edge id="121" sampledSeconds="6706.45" traveltime="149.60" overlapTraveltime="152.42" density="1.65" overlapDensity="1.68" laneDensity="1.65" occupancy="1.98" waitingTime="1632.00" timeLoss="2711.16" speed="4.63" speedRelative="0.33" departed="44" arrived="0" entered="0" left="44" laneChangedFrom="0" laneChangedTo="0" flow="27.59"/>
        <edge id="122" sampledSeconds="30176.73" traveltime="17.18" overlapTraveltime="17.71" density="24.06" overlapDensity="24.80" laneDensity="8.02" occupancy="3.89" waitingTime="338.00" timeLoss="3295.29" speed="12.24" speedRelative="0.88" departed="0" arrived="0" entered="1704" left="1704" laneChangedFrom="231" laneChangedTo="231" flow="1068.34"/>
        <edge id="124" sampledSeconds="2486.81" traveltime="2.32" overlapTraveltime="2.72" density="13.99" overlapDensity="16.42" laneDensity="7.00" occupancy="3.33" waitingTime="0.00" timeLoss="408.89" speed="11.45" speedRelative="0.82" departed="0" arrived="0" entered="913" left="913" laneChangedFrom="14" laneChangedTo="14" flow="572.41"/>
        <edge id="125" sampledSeconds="87.10" traveltime="1.08" overlapTraveltime="2.03" density="0.66" overlapDensity="1.23" laneDensity="0.33" occupancy="0.37" waitingTime="0.00" timeLoss="11.88" speed="12.00" speedRelative="0.86" departed="0" arrived="0" entered="43" left="43" laneChangedFrom="1" laneChangedTo="1" flow="26.96"/>
        <edge id="127" sampledSeconds="2376.48" traveltime="2.47" overlapTraveltime="3.28" density="19.86" overlapDensity="26.40" laneDensity="9.93" occupancy="4.95" waitingTime="42.00" timeLoss="1012.84" speed="6.25" speedRelative="0.45" departed="0" arrived="0" entered="724" left="724" laneChangedFrom="177" laneChangedTo="177" flow="453.92"/>
        <edge id="13" sampledSeconds="4375.76" traveltime="5.45" overlapTraveltime="6.40" density="28.13" overlapDensity="33.03" laneDensity="28.13" occupancy="12.15" waitingTime="960.00" timeLoss="2983.50" speed="4.36" speedRelative="0.31" departed="495" arrived="0" entered="189" left="684" laneChangedFrom="0" laneChangedTo="0" flow="428.84"/>
        <edge id="131" sampledSeconds="41518.42" traveltime="268.38" overlapTraveltime="269.63" density="22.02" overlapDensity="22.12" laneDensity="22.02" occupancy="11.01" waitingTime="31231.00" timeLoss="37791.15" speed="1.23" speedRelative="0.09" departed="154" arrived="0" entered="0" left="154" laneChangedFrom="0" laneChangedTo="0" flow="96.55"/>
        <edge id="133" sampledSeconds="1155.06" traveltime="47.06" overlapTraveltime="48.13" density="1.25" overlapDensity="1.28" laneDensity="1.25" occupancy="1.46" waitingTime="124.00" timeLoss="382.81" speed="3.52" speedRelative="0.25" departed="24" arrived="0" entered="0" left="24" laneChangedFrom="0" laneChangedTo="0" flow="15.05"/>
        <edge id="134" sampledSeconds="1051.82" traveltime="1.57" overlapTraveltime="2.08" density="12.16" overlapDensity="16.20" laneDensity="12.16" occupancy="5.75" waitingTime="56.00" timeLoss="448.05" speed="7.93" speedRelative="0.57" departed="0" arrived="0" entered="504" left="504" laneChangedFrom="0" laneChangedTo="0" flow="315.99"/>
        <edge id="134b" sampledSeconds="7602.04" traveltime="14.80" overlapTraveltime="15.29" density="8.27" overlapDensity="8.42" laneDensity="8.27" occupancy="4.83" waitingTime="306.00" timeLoss="1174.25" speed="10.66" speedRelative="0.77" departed="0" arrived="504" entered="504" left="0" laneChangedFrom="0" laneChangedTo="0" flow="315.90"/>
        <edge id="135" sampledSeconds="0.00" departed="0" arrived="0" entered="0" left="0" laneChangedFrom="0" laneChangedTo="0"/>
        <edge id="136" sampledSeconds="13848.76" traveltime="15.56" overlapTraveltime="15.94" density="12.66" overlapDensity="12.88" laneDensity="12.66" occupancy="6.05" waitingTime="0.00" timeLoss="1775.74" speed="12.05" speedRelative="0.87" departed="0" arrived="875" entered="875" left="0" laneChangedFrom="0" laneChangedTo="0" flow="548.47"/>
        <edge id="137" sampledSeconds="0.00" departed="0" arrived="0" entered="0" left="0" laneChangedFrom="0" laneChangedTo="0"/>
        <edge id="138" sampledSeconds="0.00" departed="0" arrived="0" entered="0" left="0" laneChangedFrom="0" laneChangedTo="0"/>
        <edge id="14" sampledSeconds="4258.61" traveltime="6.28" overlapTraveltime="6.65" density="9.07" overlapDensity="9.48" laneDensity="9.07" occupancy="4.34" waitingTime="0.00" timeLoss="390.44" speed="12.50" speedRelative="0.90" departed="0" arrived="650" entered="650" left="0" laneChangedFrom="0" laneChangedTo="0" flow="407.28"/>
        <edge id="15" sampledSeconds="36779.86" traveltime="75.63" overlapTraveltime="76.48" density="69.30" overlapDensity="70.06" laneDensity="69.30" occupancy="33.92" waitingTime="26554.00" timeLoss="33242.02" speed="1.26" speedRelative="0.09" departed="0" arrived="0" entered="481" left="481" laneChangedFrom="0" laneChangedTo="0" flow="301.57"/>
        <edge id="153" sampledSeconds="1570.86" traveltime="77.40" overlapTraveltime="78.54" density="0.68" overlapDensity="0.69" laneDensity="0.68" occupancy="0.33" waitingTime="854.00" timeLoss="972.13" speed="5.11" speedRelative="0.37" departed="0" arrived="0" entered="20" left="20" laneChangedFrom="0" laneChangedTo="0" flow="12.54"/>
        <edge id="159" sampledSeconds="13503.82" traveltime="24.39" overlapTraveltime="24.82" density="10.15" overlapDensity="10.33" laneDensity="10.15" occupancy="4.93" waitingTime="2342.00" timeLoss="4397.93" speed="9.37" speedRelative="0.67" departed="0" arrived="0" entered="544" left="544" laneChangedFrom="0" laneChangedTo="0" flow="341.07"/>
        <edge id="16" sampledSeconds="3356.32" traveltime="7.70" overlapTraveltime="8.09" density="6.09" overlapDensity="6.39" laneDensity="6.09" occupancy="2.93" waitingTime="0.00" timeLoss="462.92" speed="11.91" speedRelative="0.86" departed="0" arrived="0" entered="415" left="415" laneChangedFrom="0" laneChangedTo="0" flow="260.19"/>
        <edge id="160" sampledSeconds="14790.07" traveltime="24.82" overlapTraveltime="25.59" density="10.98" overlapDensity="11.32" laneDensity="10.98" occupancy="5.41" waitingTime="1533.00" timeLoss="4807.32" speed="9.09" speedRelative="0.65" departed="0" arrived="0" entered="578" left="578" laneChangedFrom="0" laneChangedTo="0" flow="362.38"/>
        <edge id="161" sampledSeconds="27738.54" traveltime="15.55" overlapTraveltime="15.94" density="24.47" overlapDensity="25.09" laneDensity="8.16" occupancy="3.94" waitingTime="0.00" timeLoss="2718.35" speed="12.38" speedRelative="0.89" departed="0" arrived="0" entered="1740" left="1740" laneChangedFrom="1003" laneChangedTo="1003" flow="1090.91"/>
        <edge id="165" sampledSeconds="0.00" departed="0" arrived="0" entered="0" left="0" laneChangedFrom="0" laneChangedTo="0"/>
        <edge id="166" sampledSeconds="0.00" departed="0" arrived="0" entered="0" left="0" laneChangedFrom="0" laneChangedTo="0"/>
        <edge id="17" sampledSeconds="4833.09" traveltime="11.68" overlapTraveltime="12.42" density="5.94" overlapDensity="6.32" laneDensity="2.97" occupancy="1.45" waitingTime="238.00" timeLoss="927.26" speed="11.10" speedRelative="0.80" departed="0" arrived="0" entered="389" left="389" laneChangedFrom="17" laneChangedTo="17" flow="243.89"/>
        <edge id="171" sampledSeconds="2268.73" traveltime="51.63" overlapTraveltime="52.76" density="2.22" overlapDensity="2.27" laneDensity="2.22" occupancy="1.08" waitingTime="1469.00" timeLoss="1685.74" speed="3.39" speedRelative="0.24" departed="0" arrived="0" entered="43" left="43" laneChangedFrom="0" laneChangedTo="0" flow="26.96"/>
        <edge id="173" sampledSeconds="0.00" departed="0" arrived="0" entered="0" left="0" laneChangedFrom="0" laneChangedTo="0"/>
        <edge id="179" sampledSeconds="0.00" departed="0" arrived="0" entered="0" left="0" laneChangedFrom="0" laneChangedTo="0"/>
        <edge id="18" sampledSeconds="11840.47" traveltime="21.87" overlapTraveltime="22.64" density="76.11" overlapDensity="78.80" laneDensity="38.05" occupancy="17.62" waitingTime="8790.82" timeLoss="10500.78" speed="1.37" speedRelative="0.10" departed="0" arrived="0" entered="523" left="523" laneChangedFrom="0" laneChangedTo="0" flow="327.90"/>
        <edge id="180" sampledSeconds="17597.91" traveltime="19.33" overlapTraveltime="20.11" density="14.27" overlapDensity="14.84" laneDensity="14.27" occupancy="6.90" waitingTime="0.00" timeLoss="3885.61" speed="10.51" speedRelative="0.76" departed="0" arrived="0" entered="875" left="875" laneChangedFrom="0" laneChangedTo="0" flow="548.59"/>
        <edge id="181" sampledSeconds="6038.29" traveltime="9.38" overlapTraveltime="11.55" density="13.14" overlapDensity="16.17" laneDensity="6.57" occupancy="3.32" waitingTime="1905.00" timeLoss="3380.18" speed="6.05" speedRelative="0.44" departed="0" arrived="0" entered="523" left="523" laneChangedFrom="389" laneChangedTo="389" flow="327.90"/>
        <edge id="185" sampledSeconds="126.52" traveltime="4.37" overlapTraveltime="5.27" density="0.32" overlapDensity="0.38" laneDensity="0.32" occupancy="0.38" waitingTime="0.00" timeLoss="5.90" speed="13.24" speedRelative="0.95" departed="0" arrived="0" entered="24" left="24" laneChangedFrom="0" laneChangedTo="0" flow="15.05"/>
        <edge id="186" sampledSeconds="3329.95" traveltime="4.97" overlapTraveltime="5.41" density="9.21" overlapDensity="10.03" laneDensity="9.21" occupancy="4.71" waitingTime="0.00" timeLoss="493.95" speed="11.63" speedRelative="0.84" departed="0" arrived="0" entered="615" left="615" laneChangedFrom="0" laneChangedTo="0" flow="385.58"/>
        <edge id="187" sampledSeconds="927.65" traveltime="37.44" overlapTraveltime="38.65" density="1.86" overlapDensity="1.92" laneDensity="1.86" occupancy="2.23" waitingTime="109.00" timeLoss="281.28" speed="2.49" speedRelative="0.18" departed="0" arrived="0" entered="24" left="24" laneChangedFrom="0" laneChangedTo="0" flow="15.05"/>
        <edge id="188" sampledSeconds="4548.11" traveltime="7.12" overlapTraveltime="7.56" density="8.86" overlapDensity="9.39" laneDensity="8.86" occupancy="4.55" waitingTime="0.00" timeLoss="606.01" speed="11.84" speedRelative="0.85" departed="0" arrived="0" entered="602" left="602" laneChangedFrom="0" laneChangedTo="0" flow="377.43"/>
        <edge id="189[0]" sampledSeconds="616.77" traveltime="0.41" overlapTraveltime="0.87" density="10.32" overlapDensity="21.19" laneDensity="10.32" occupancy="5.48" waitingTime="11.00" timeLoss="73.33" speed="12.05" speedRelative="0.87" departed="0" arrived="0" entered="731" left="731" laneChangedFrom="0" laneChangedTo="0" flow="458.31"/>
        <edge id="189[1][0]+20000" sampledSeconds="2972.47" traveltime="3.57" overlapTraveltime="4.32" density="15.61" overlapDensity="17.76" laneDensity="7.81" occupancy="5.88" waitingTime="187.00" timeLoss="581.58" speed="8.42" speedRelative="0.61" departed="0" arrived="0" entered="731" left="731" laneChangedFrom="28" laneChangedTo="28" flow="458.31"/>
        <edge id="189[1][1]" sampledSeconds="24881.02" traveltime="33.43" overlapTraveltime="34.04" density="24.80" overlapDensity="25.25" laneDensity="24.80" occupancy="12.66" waitingTime="10290.00" timeLoss="15394.94" speed="5.19" speedRelative="0.37" departed="0" arrived="0" entered="731" left="731" laneChangedFrom="0" laneChangedTo="0" flow="458.31"/>
        <edge id="19" sampledSeconds="2162.71" traveltime="32.75" overlapTraveltime="34.33" density="5.19" overlapDensity="5.45" laneDensity="5.19" occupancy="2.56" waitingTime="1430.00" timeLoss="1786.39" speed="2.16" speedRelative="0.16" departed="0" arrived="0" entered="63" left="63" laneChangedFrom="0" laneChangedTo="0" flow="39.50"/>
        <edge id="190" sampledSeconds="1041.45" traveltime="42.32" overlapTraveltime="43.39" density="0.80" overlapDensity="0.82" laneDensity="0.80" occupancy="0.96" waitingTime="2.00" timeLoss="157.63" speed="5.39" speedRelative="0.39" departed="0" arrived="0" entered="24" left="24" laneChangedFrom="0" laneChangedTo="0" flow="15.05"/>
        <edge id="191" sampledSeconds="8553.35" traveltime="65.22" overlapTraveltime="66.30" density="8.69" overlapDensity="8.83" laneDensity="8.69" occupancy="4.21" waitingTime="5721.00" timeLoss="6921.79" speed="2.62" speedRelative="0.19" departed="0" arrived="0" entered="129" left="129" laneChangedFrom="0" laneChangedTo="0" flow="80.88"/>
        <edge id="194" sampledSeconds="772.98" traveltime="20.60" overlapTraveltime="21.47" density="0.73" overlapDensity="0.76" laneDensity="0.73" occupancy="0.35" waitingTime="167.00" timeLoss="283.72" speed="8.43" speedRelative="0.61" departed="0" arrived="0" entered="36" left="36" laneChangedFrom="0" laneChangedTo="0" flow="22.57"/>
        <edge id="195" sampledSeconds="1167.77" traveltime="12.53" overlapTraveltime="12.98" density="1.55" overlapDensity="1.60" laneDensity="1.55" occupancy="0.70" waitingTime="0.00" timeLoss="307.93" speed="10.16" speedRelative="0.73" departed="90" arrived="0" entered="0" left="90" laneChangedFrom="0" laneChangedTo="0" flow="56.43"/>
        <edge id="197" sampledSeconds="0.00" departed="0" arrived="0" entered="0" left="0" laneChangedFrom="0" laneChangedTo="0"/>
        <edge id="1b" sampledSeconds="33695.24" traveltime="23.97" overlapTraveltime="24.67" density="94.41" overlapDensity="97.14" laneDensity="47.20" occupancy="22.79" waitingTime="20269.00" timeLoss="27206.78" speed="2.64" speedRelative="0.19" departed="0" arrived="0" entered="1366" left="1366" laneChangedFrom="115" laneChangedTo="115" flow="856.43"/>
        <edge id="2" sampledSeconds="6889.74" traveltime="19.42" overlapTraveltime="20.38" density="28.81" overlapDensity="30.24" laneDensity="9.60" occupancy="4.71" waitingTime="4745.00" timeLoss="5660.67" speed="2.18" speedRelative="0.16" departed="0" arrived="0" entered="338" left="338" laneChangedFrom="120" laneChangedTo="120" flow="211.91"/>
        <edge id="20" sampledSeconds="0.00" departed="0" arrived="0" entered="0" left="0" laneChangedFrom="0" laneChangedTo="0"/>
        <edge id="200" sampledSeconds="3529.52" traveltime="7.20" overlapTraveltime="7.59" density="7.03" overlapDensity="7.41" laneDensity="7.03" occupancy="3.37" waitingTime="0.00" timeLoss="565.50" speed="11.58" speedRelative="0.83" departed="0" arrived="0" entered="465" left="465" laneChangedFrom="0" laneChangedTo="0" flow="291.54"/>
        <edge id="20001+87[1][0]" sampledSeconds="2679.77" traveltime="3.78" overlapTraveltime="4.58" density="13.91" overlapDensity="15.85" laneDensity="6.96" occupancy="5.29" waitingTime="99.00" timeLoss="544.70" speed="8.03" speedRelative="0.58" departed="0" arrived="0" entered="622" left="622" laneChangedFrom="28" laneChangedTo="28" flow="389.97"/>
        <edge id="20002+89[1][0]" sampledSeconds="2086.78" traveltime="3.08" overlapTraveltime="3.87" density="13.15" overlapDensity="15.39" laneDensity="6.57" occupancy="5.03" waitingTime="30.00" timeLoss="386.73" speed="7.99" speedRelative="0.58" departed="0" arrived="0" entered="579" left="579" laneChangedFrom="24" laneChangedTo="24" flow="363.01"/>
        <edge id="201" sampledSeconds="79634.95" traveltime="57.65" overlapTraveltime="58.26" density="59.31" overlapDensity="59.94" laneDensity="19.77" occupancy="9.63" waitingTime="40973.00" timeLoss="56046.17" speed="4.05" speedRelative="0.29" departed="0" arrived="0" entered="1367" left="1367" laneChangedFrom="665" laneChangedTo="665" flow="857.05"/>
        <edge id="201c" sampledSeconds="2287.78" traveltime="1.19" overlapTraveltime="1.68" density="34.65" overlapDensity="48.83" laneDensity="11.55" occupancy="5.57" waitingTime="474.00" timeLoss="996.63" speed="7.76" speedRelative="0.56" departed="0" arrived="0" entered="1367" left="1367" laneChangedFrom="29" laneChangedTo="29" flow="857.05"/>
        <edge id="202" sampledSeconds="36433.74" traveltime="28.12" overlapTraveltime="30.76" density="34.79" overlapDensity="38.04" laneDensity="11.60" occupancy="5.88" waitingTime="13191.00" timeLoss="21584.82" speed="5.58" speedRelative="0.40" departed="0" arrived="0" entered="1185" left="1185" laneChangedFrom="364" laneChangedTo="364" flow="742.95"/>
        <edge id="203[0]" sampledSeconds="133202.16" traveltime="86.38" overlapTraveltime="86.95" density="57.45" overlapDensity="57.82" laneDensity="19.15" occupancy="9.22" waitingTime="60440.00" timeLoss="88110.09" speed="4.67" speedRelative="0.34" departed="1532" arrived="0" entered="0" left="1532" laneChangedFrom="1025" laneChangedTo="1025" flow="960.50"/>
        <edge id="203[1]" sampledSeconds="38346.29" traveltime="44.65" overlapTraveltime="45.28" density="28.67" overlapDensity="29.07" laneDensity="9.56" occupancy="4.68" waitingTime="18228.00" timeLoss="23862.32" speed="5.18" speedRelative="0.37" departed="0" arrived="0" entered="847" left="847" laneChangedFrom="634" laneChangedTo="634" flow="531.03"/>
        <edge id="203[1]b" sampledSeconds="435.69" traveltime="0.02" overlapTraveltime="0.52" density="15.35" overlapDensity="379.39" laneDensity="5.12" occupancy="2.43" waitingTime="0.00" timeLoss="125.89" speed="9.84" speedRelative="0.71" departed="0" arrived="0" entered="847" left="847" laneChangedFrom="0" laneChangedTo="0" flow="531.03"/>
        <edge id="204[1][0]" sampledSeconds="633.93" traveltime="0.04" overlapTraveltime="0.44" density="20.57" overlapDensity="204.45" laneDensity="10.29" occupancy="4.97" waitingTime="0.00" timeLoss="61.14" speed="12.45" speedRelative="0.90" departed="0" arrived="0" entered="1463" left="1463" laneChangedFrom="0" laneChangedTo="0" flow="917.23"/>
        <edge id="204[1][1]" sampledSeconds="49808.74" traveltime="33.78" overlapTraveltime="34.15" density="19.72" overlapDensity="19.87" laneDensity="6.57" occupancy="3.19" waitingTime="0.00" timeLoss="3081.98" speed="12.92" speedRelative="0.93" departed="0" arrived="1463" entered="1463" left="0" laneChangedFrom="839" laneChangedTo="839" flow="917.14"/>
        <edge id="204a[0]" sampledSeconds="175468.75" traveltime="63.64" overlapTraveltime="64.20" density="159.16" overlapDensity="160.58" laneDensity="53.05" occupancy="25.66" waitingTime="93007.00" timeLoss="136565.30" speed="3.04" speedRelative="0.22" departed="0" arrived="0" entered="2733" left="2733" laneChangedFrom="704" laneChangedTo="704" flow="1713.48"/>
        <edge id="204b[0]" sampledSeconds="927.17" traveltime="0.02" overlapTraveltime="0.52" density="32.57" overlapDensity="545.45" laneDensity="10.86" occupancy="5.17" waitingTime="0.00" timeLoss="135.58" speed="9.83" speedRelative="0.71" departed="0" arrived="0" entered="1820" left="1820" laneChangedFrom="1" laneChangedTo="1" flow="1141.03"/>
        <edge id="206" sampledSeconds="1675.50" traveltime="8.94" overlapTraveltime="9.74" density="2.81" overlapDensity="3.06" laneDensity="2.81" occupancy="1.36" waitingTime="0.00" timeLoss="326.22" speed="10.29" speedRelative="0.74" departed="0" arrived="0" entered="172" left="172" laneChangedFrom="0" laneChangedTo="0" flow="107.84"/>
        <edge id="209" sampledSeconds="54296.56" traveltime="32.07" overlapTraveltime="32.45" density="23.64" overlapDensity="23.84" laneDensity="7.88" occupancy="3.84" waitingTime="16.00" timeLoss="5203.07" speed="12.37" speedRelative="0.89" departed="0" arrived="1679" entered="1679" left="0" laneChangedFrom="667" laneChangedTo="667" flow="1052.54"/>
        <edge id="210" sampledSeconds="62484.43" traveltime="31.72" overlapTraveltime="32.26" density="29.37" overlapDensity="29.87" laneDensity="9.79" occupancy="4.64" waitingTime="633.00" timeLoss="10505.52" speed="11.44" speedRelative="0.82" departed="1937" arrived="0" entered="0" left="1937" laneChangedFrom="634" laneChangedTo="634" flow="1214.42"/>
        <edge id="211" sampledSeconds="2120.36" traveltime="10.85" overlapTraveltime="11.59" density="2.59" overlapDensity="2.76" laneDensity="2.59" occupancy="1.27" waitingTime="0.00" timeLoss="181.25" speed="11.96" speedRelative="0.86" departed="0" arrived="0" entered="183" left="183" laneChangedFrom="0" laneChangedTo="0" flow="114.73"/>
        <edge id="212" sampledSeconds="0.00" departed="0" arrived="0" entered="0" left="0" laneChangedFrom="0" laneChangedTo="0"/>
        <edge id="218" sampledSeconds="0.00" departed="0" arrived="0" entered="0" left="0" laneChangedFrom="0" laneChangedTo="0"/>
        <edge id="219" sampledSeconds="0.00" departed="0" arrived="0" entered="0" left="0" laneChangedFrom="0" laneChangedTo="0"/>
        <edge id="21a" sampledSeconds="886.70" traveltime="2.35" overlapTraveltime="2.80" density="6.71" overlapDensity="7.98" laneDensity="6.71" occupancy="3.06" waitingTime="0.00" timeLoss="323.77" speed="8.66" speedRelative="0.62" departed="0" arrived="0" entered="317" left="317" laneChangedFrom="0" laneChangedTo="0" flow="198.75"/>
        <edge id="21b" sampledSeconds="5824.06" traveltime="10.35" overlapTraveltime="10.75" density="7.79" overlapDensity="8.08" laneDensity="7.79" occupancy="3.76" waitingTime="0.00" timeLoss="678.02" speed="12.13" speedRelative="0.87" departed="0" arrived="0" entered="542" left="542" laneChangedFrom="0" laneChangedTo="0" flow="339.81"/>
        <edge id="22" sampledSeconds="12960.56" traveltime="17.20" overlapTraveltime="18.39" density="27.46" overlapDensity="29.35" laneDensity="27.46" occupancy="13.48" waitingTime="2157.44" timeLoss="8710.31" speed="4.45" speedRelative="0.32" departed="0" arrived="0" entered="705" left="705" laneChangedFrom="0" laneChangedTo="0" flow="442.01"/>
        <edge id="220" sampledSeconds="0.00" departed="0" arrived="0" entered="0" left="0" laneChangedFrom="0" laneChangedTo="0"/>
        <edge id="220b" sampledSeconds="0.00" departed="0" arrived="0" entered="0" left="0" laneChangedFrom="0" laneChangedTo="0"/>
        <edge id="222" sampledSeconds="0.00" departed="0" arrived="0" entered="0" left="0" laneChangedFrom="0" laneChangedTo="0"/>
        <edge id="224[0]" sampledSeconds="14827.85" traveltime="27.97" overlapTraveltime="28.35" density="7.85" overlapDensity="7.95" laneDensity="7.85" occupancy="3.67" waitingTime="0.00" timeLoss="2291.53" speed="11.62" speedRelative="0.84" departed="523" arrived="0" entered="0" left="523" laneChangedFrom="0" laneChangedTo="0" flow="327.90"/>
        <edge id="224[1]" sampledSeconds="6316.98" traveltime="11.45" overlapTraveltime="12.08" density="7.58" overlapDensity="7.99" laneDensity="7.58" occupancy="3.69" waitingTime="0.00" timeLoss="729.02" speed="11.79" speedRelative="0.85" departed="0" arrived="0" entered="523" left="523" laneChangedFrom="0" laneChangedTo="0" flow="327.90"/>
        <edge id="24" sampledSeconds="13126.40" traveltime="19.79" overlapTraveltime="20.44" density="16.05" overlapDensity="16.58" laneDensity="16.05" occupancy="7.79" waitingTime="2111.00" timeLoss="6457.77" speed="6.98" speedRelative="0.50" departed="0" arrived="0" entered="642" left="642" laneChangedFrom="0" laneChangedTo="0" flow="402.51"/>
        <edge id="26" sampledSeconds="0.00" departed="0" arrived="0" entered="0" left="0" laneChangedFrom="0" laneChangedTo="0"/>
        <edge id="28" sampledSeconds="0.00" departed="0" arrived="0" entered="0" left="0" laneChangedFrom="0" laneChangedTo="0"/>