<?xml version="1.0" encoding="UTF-8"?>

<!-- generated on 2026-03-10T21:33:40.505060-05:00 by Eclipse SUMO sumo 1.26.0
<sumoConfiguration xmlns:xsi="http://www.w3.org/2001/XMLSchema-instance" xsi:noNamespaceSchemaLocation="http://sumo.dlr.de/xsd/sumoConfiguration.xsd">

    <input>
        <net-file value="
        <route-files value="
        <additional-files value="
    </input>

    <output>
        <tripinfo-output value="
    </output>

    <processing>
        <ignore-route-errors value="true"/>
    </processing>

    <report>
        <log value="
        <no-step-log value="true"/>
    </report>

    <gui_only>
        <gui-settings-file value="
    </gui_only>

</sumoConfiguration>
-->

<tripinfos xmlns:xsi="http://www.w3.org/2001/XMLSchema-instance" xsi:noNamespaceSchemaLocation="http://sumo.dlr.de/xsd/tripinfo_file.xsd">
    <tripinfo id="Pepoli_8_16" depart="27.00" departLane="210_0" departPos="0.00" departSpeed="0.00" departDelay="0.00" arrival="82.00" arrivalLane="134b_0" arrivalPos="156.17" arrivalSpeed="14.18" duration="55.00" routeLength="692.71" waitingTime="0.00" waitingCount="0" stopTime="0.00" timeLoss="8.24" rerouteNo="0" devices="tripinfo_Pepoli_8_16" vType="passenger1" speedFactor="1.09" vaporized=""/>
    <tripinfo id="Pepoli_8_21" depart="37.00" departLane="210_0" departPos="0.00" departSpeed="0.00" departDelay="1.00" arrival="92.00" arrivalLane="134b_0" arrivalPos="156.17" arrivalSpeed="16.20" duration="55.00" routeLength="692.71" waitingTime="0.00" waitingCount="0" stopTime="0.00" timeLoss="13.81" rerouteNo="0" devices="tripinfo_Pepoli_8_21" vType="passenger1" speedFactor="1.25" vaporized=""/>
    <tripinfo id="Togliatti_2_8" depart="11.00" departLane="85_0" departPos="0.00" departSpeed="0.00" departDelay="0.00" arrival="101.00" arrivalLane="77[1][1]_0" arrivalPos="463.98" arrivalSpeed="14.29" duration="90.00" routeLength="1145.48" waitingTime="0.00" waitingCount="0" stopTime="0.00" timeLoss="13.12" rerouteNo="0" devices="tripinfo_Togliatti_2_8" vType="passenger2a" speedFactor="1.10" vaporized=""/>
    <tripinfo id="Costa_12_0" depart="0.00" departLane="78[0]_0" departPos="0.00" departSpeed="0.00" departDelay="0.00" arrival="112.00" arrivalLane="136_0" arrivalPos="186.20" arrivalSpeed="14.96" duration="112.00" routeLength="1416.38" waitingTime="0.00" waitingCount="0" stopTime="0.00" timeLoss="15.10" rerouteNo="0" devices="tripinfo_Costa_12_0" vType="passenger1" speedFactor="1.08" vaporized=""/>
    <tripinfo id="Costa_1_2" depart="9.00" departLane="78[0]_0" departPos="0.00" departSpeed="0.00" departDelay="4.00" arrival="113.00" arrivalLane="86_0" arrivalPos="321.19" arrivalSpeed="13.20" duration="104.00" routeLength="1191.67" waitingTime="2.00" waitingCount="1" stopTime="0.00" timeLoss="17.99" rerouteNo="0" devices="tripinfo_Costa_1_2" vType="passenger2b" speedFactor="1.02" vaporized=""/>
    <tripinfo id="Costa_1_4" depart="15.00" departLane="78[0]_0" departPos="0.00" departSpeed="0.00" departDelay="5.00" arrival="114.00" arrivalLane="86_2" arrivalPos="321.19" arrivalSpeed="12.47" duration="99.00" routeLength="1185.31" waitingTime="0.00" waitingCount="0" stopTime="0.00" timeLoss="10.88" rerouteNo="0" devices="tripinfo_Costa_1_4" vType="passenger2a" speedFactor="0.99" vaporized=""/>
    <tripinfo id="Costa_12_1" depart="7.00" departLane="78[0]_0" departPos="0.00" departSpeed="0.00" departDelay="5.00" arrival="119.00" arrivalLane="136_0" arrivalPos="186.20" arrivalSpeed="13.80" duration="112.00" routeLength="1416.38" waitingTime="0.00" waitingCount="0" stopTime="0.00" timeLoss="16.21" rerouteNo="0" devices="tripinfo_Costa_12_1" vType="passenger2b" speedFactor="1.09" vaporized=""/>
    <tripinfo id="Audinot_7_0" depart="0.00" departLane="131_0" departPos="0.00" departSpeed="0.00" departDelay="0.00" arrival="124.00" arrivalLane="209_0" arrivalPos="395.59" arrivalSpeed="12.72" duration="124.00" routeLength="873.23" waitingTime="43.00" waitingCount="1" stopTime="0.00" timeLoss="57.48" rerouteNo="0" devices="tripinfo_Audinot_7_0" vType="passenger4" speedFactor="0.98" vaporized=""/>
    <tripinfo id="Costa_3_21" depart="56.00" departLane="78[0]_0" departPos="0.00" departSpeed="0.00" departDelay="2.00" arrival="128.00" arrivalLane="14_0" arrivalPos="77.26" arrivalSpeed="14.97" duration="72.00" routeLength="850.23" waitingTime="0.00" waitingCount="0" stopTime="0.00" timeLoss="16.80" rerouteNo="0" devices="tripinfo_Costa_3_21" vType="passenger1" speedFactor="1.13" vaporized=""/>
    <tripinfo id="Costa_12_3" depart="12.00" departLane="78[0]_0" departPos="0.00" departSpeed="0.00" departDelay="5.00" arrival="131.00" arrivalLane="136_0" arrivalPos="186.20" arrivalSpeed="13.11" duration="119.00" routeLength="1413.55" waitingTime="0.00" waitingCount="0" stopTime="0.00" timeLoss="15.14" rerouteNo="0" devices="tripinfo_Costa_12_3" vType="passenger1" speedFactor="1.01" vaporized=""/>
    <tripinfo id="Costa_12_7" depart="20.00" departLane="78[0]_0" departPos="0.00" departSpeed="0.00" departDelay="2.00" arrival="134.00" arrivalLane="136_0" arrivalPos="186.20" arrivalSpeed="15.18" duration="114.00" routeLength="1416.38" waitingTime="0.00" waitingCount="0" stopTime="0.00" timeLoss="18.88" rerouteNo="0" devices="tripinfo_Costa_12_7" vType="passenger5" speedFactor="1.10" vaporized=""/>
    <tripinfo id="Turati_3_2" depart="69.00" departLane="195_0" departPos="0.00" departSpeed="0.00" departDelay="0.00" arrival="148.00" arrivalLane="14_0" arrivalPos="77.26" arrivalSpeed="13.41" duration="79.00" routeLength="947.57" waitingTime="0.00" waitingCount="0" stopTime="0.00" timeLoss="9.37" rerouteNo="0" devices="tripinfo_Turati_3_2" vType="ignoring1" speedFactor="1.00" vaporized=""/>
    <tripinfo id="Pepoli_8_23" depart="40.00" departLane="210_0" departPos="0.00" departSpeed="0.00" departDelay="1.00" arrival="151.00" arrivalLane="134b_0" arrivalPos="156.17" arrivalSpeed="15.66" duration="111.00" routeLength="692.71" waitingTime="46.00" waitingCount="1" stopTime="0.00" timeLoss="65.42" rerouteNo="0" devices="tripinfo_Pepoli_8_23" vType="passenger1" speedFactor="1.13" vaporized=""/>
    <tripinfo id="Pepoli_8_25" depart="42.00" departLane="210_0" departPos="0.00" departSpeed="0.00" departDelay="0.00" arrival="154.00" arrivalLane="134b_0" arrivalPos="156.17" arrivalSpeed="13.29" duration="112.00" routeLength="692.71" waitingTime="46.00" waitingCount="2" stopTime="0.00" timeLoss="62.38" rerouteNo="0" devices="tripinfo_Pepoli_8_25" vType="passenger2a" speedFactor="1.03" vaporized=""/>
    <tripinfo id="Pepoli_8_28" depart="48.00" departLane="210_0" departPos="0.00" departSpeed="0.00" departDelay="0.00" arrival="156.00" arrivalLane="134b_0" arrivalPos="156.17" arrivalSpeed="14.71" duration="108.00" routeLength="692.71" waitingTime="42.00" waitingCount="1" stopTime="0.00" timeLoss="62.10" rerouteNo="0" devices="tripinfo_Pepoli_8_28" vType="passenger3" speedFactor="1.13" vaporized=""/>
    <tripinfo id="Pepoli_3_0" depart="0.00" departLane="210_2" departPos="0.00" departSpeed="0.00" departDelay="0.00" arrival="157.00" arrivalLane="14_0" arrivalPos="77.26" arrivalSpeed="12.77" duration="157.00" routeLength="1941.55" waitingTime="0.00" waitingCount="0" stopTime="0.00" timeLoss="15.38" rerouteNo="0" devices="tripinfo_Pepoli_3_0" vType="ignoring2b" speedFactor="1.00" vaporized=""/>
    <tripinfo id="bus_13_0" depart="0.00" departLane="55_0" departPos="0.00" departSpeed="0.00" departDelay="0.00" arrival="159.00" arrivalLane="114_0" arrivalPos="691.06" arrivalSpeed="13.11" duration="159.00" routeLength="1059.82" waitingTime="19.00" waitingCount="2" stopTime="40.00" timeLoss="30.01" rerouteNo="0" devices="tripinfo_bus_13_0" vType="bus" speedFactor="1.00" vaporized=""/>
    <tripinfo id="Togliatti_12_15" depart="21.00" departLane="85_2" departPos="0.00" departSpeed="0.00" departDelay="0.00" arrival="159.00" arrivalLane="136_0" arrivalPos="186.20" arrivalSpeed="12.73" duration="138.00" routeLength="909.95" waitingTime="50.00" waitingCount="1" stopTime="0.00" timeLoss="65.60" rerouteNo="0" devices="tripinfo_Togliatti_12_15" vType="passenger3" speedFactor="0.94" vaporized=""/>
    <tripinfo id="Pepoli_3_2" depart="3.00" departLane="210_2" departPos="0.00" departSpeed="0.00" departDelay="0.00" arrival="160.00" arrivalLane="14_0" arrivalPos="77.26" arrivalSpeed="13.26" duration="157.00" routeLength="1941.55" waitingTime="0.00" waitingCount="0" stopTime="0.00" timeLoss="15.03" rerouteNo="0" devices="tripinfo_Pepoli_3_2" vType="ignoring1" speedFactor="1.00" vaporized=""/>
    <tripinfo id="Togliatti_12_24" depart="34.00" departLane="85_2" departPos="0.00" departSpeed="0.00" departDelay="0.00" arrival="162.00" arrivalLane="136_0" arrivalPos="186.20" arrivalSpeed="12.02" duration="128.00" routeLength="909.95" waitingTime="41.00" waitingCount="1" stopTime="0.00" timeLoss="56.86" rerouteNo="0" devices="tripinfo_Togliatti_12_24" vType="passenger1" speedFactor="0.95" vaporized=""/>
    <tripinfo id="Pepoli_10_10" depart="17.00" departLane="210_0" departPos="0.00" departSpeed="0.00" departDelay="0.00" arrival="163.00" arrivalLane="204[1][1]_1" arrivalPos="435.51" arrivalSpeed="16.05" duration="146.00" routeLength="1470.66" waitingTime="27.00" waitingCount="1" stopTime="0.00" timeLoss="54.85" rerouteNo="0" devices="tripinfo_Pepoli_10_10" vType="passenger2a" speedFactor="1.17" vaporized=""/>
    <tripinfo id="Togliatti_12_48" depart="68.00" departLane="85_2" departPos="0.00" departSpeed="0.00" departDelay="0.00" arrival="163.00" arrivalLane="136_0" arrivalPos="186.20" arrivalSpeed="14.28" duration="95.00" routeLength="909.95" waitingTime="8.00" waitingCount="1" stopTime="0.00" timeLoss="30.12" rerouteNo="0" devices="tripinfo_Togliatti_12_48" vType="passenger2a" speedFactor="1.04" vaporized=""/>
    <tripinfo id="Togliatti_12_59" depart="84.00" departLane="85_2" departPos="0.00" departSpeed="0.00" departDelay="0.00" arrival="165.00" arrivalLane="136_0" arrivalPos="186.20" arrivalSpeed="14.22" duration="81.00" routeLength="909.95" waitingTime="0.00" waitingCount="0" stopTime="0.00" timeLoss="20.26" rerouteNo="0" devices="tripinfo_Togliatti_12_59" vType="passenger1" speedFactor="1.12" vaporized=""/>
    <tripinfo id="Pepoli_8_44" depart="75.00" departLane="210_0" departPos="0.00" departSpeed="0.00" departDelay="0.00" arrival="168.00" arrivalLane="134b_0" arrivalPos="156.17" arrivalSpeed="10.70" duration="93.00" routeLength="692.71" waitingTime="19.00" waitingCount="1" stopTime="0.00" timeLoss="32.55" rerouteNo="0" devices="tripinfo_Pepoli_8_44" vType="passenger3" speedFactor="0.85" vaporized=""/>
    <tripinfo id="Vittorio_Veneto_1_4" depart="18.00" departLane="224[0]_0" departPos="0.00" departSpeed="0.00" departDelay="0.00" arrival="169.00" arrivalLane="86_0" arrivalPos="321.19" arrivalSpeed="12.69" duration="151.00" routeLength="1143.28" waitingTime="53.00" waitingCount="1" stopTime="0.00" timeLoss="67.05" rerouteNo="0" devices="tripinfo_Vittorio_Veneto_1_4" vType="passenger1" speedFactor="1.00" vaporized=""/>
    <tripinfo id="Pepoli_8_48" depart="82.00" departLane="210_0" departPos="0.00" departSpeed="0.00" departDelay="0.00" arrival="169.00" arrivalLane="134b_0" arrivalPos="156.17" arrivalSpeed="13.89" duration="87.00" routeLength="692.71" waitingTime="19.00" waitingCount="1" stopTime="0.00" timeLoss="41.19" rerouteNo="0" devices="tripinfo_Pepoli_8_48" vType="passenger2a" speedFactor="1.11" vaporized=""/>
    <tripinfo id="Pepoli_10_4" depart="6.00" departLane="210_0" departPos="0.00" departSpeed="0.00" departDelay="0.00" arrival="171.00" arrivalLane="204[1][1]_0" arrivalPos="435.51" arrivalSpeed="12.18" duration="165.00" routeLength="1470.66" waitingTime="30.00" waitingCount="1" stopTime="0.00" timeLoss="45.25" rerouteNo="0" devices="tripinfo_Pepoli_10_4" vType="passenger2b" speedFactor="0.89" vaporized=""/>
    <tripinfo id="XXI_Aprile_2_12" depart="42.00" departLane="13_0" departPos="0.00" departSpeed="0.00" departDelay="0.00" arrival="171.00" arrivalLane="77[1][1]_0" arrivalPos="463.98" arrivalSpeed="14.85" duration="129.00" routeLength="976.81" waitingTime="39.00" waitingCount="2" stopTime="0.00" timeLoss="63.78" rerouteNo="0" devices="tripinfo_XXI_Aprile_2_12" vType="passenger4" speedFactor="1.10" vaporized=""/>
    <tripinfo id="Pepoli_8_51" depart="87.00" departLane="210_0" departPos="0.00" departSpeed="0.00" departDelay="0.00" arrival="171.00" arrivalLane="134b_0" arrivalPos="156.17" arrivalSpeed="12.73" duration="84.00" routeLength="692.71" waitingTime="14.00" waitingCount="2" stopTime="0.00" timeLoss="29.66" rerouteNo="0" devices="tripinfo_Pepoli_8_51" vType="passenger1" speedFactor="0.94" vaporized=""/>
    <tripinfo id="Togliatti_71_2" depart="2.00" departLane="85_1" departPos="0.00" departSpeed="0.00" departDelay="0.00" arrival="172.00" arrivalLane="209_0" arrivalPos="395.59" arrivalSpeed="14.80" duration="170.00" routeLength="2025.50" waitingTime="20.00" waitingCount="1" stopTime="0.00" timeLoss="38.88" rerouteNo="0" devices="tripinfo_Togliatti_71_2" vType="passenger1" speedFactor="1.12" vaporized=""/>
    <tripinfo id="Silvani_7_4" depart="9.00" departLane="203[0]_1" departPos="0.00" departSpeed="0.00" departDelay="0.00" arrival="172.00" arrivalLane="209_2" arrivalPos="395.59" arrivalSpeed="15.68" duration="163.00" routeLength="1451.40" waitingTime="57.00" waitingCount="1" stopTime="0.00" timeLoss="72.38" rerouteNo="0" devices="tripinfo_Silvani_7_4" vType="passenger2a" speedFactor="1.15" vaporized=""/>
    <tripinfo id="Pepoli_10_18" depart="30.00" departLane="210_0" departPos="0.00" departSpeed="0.00" departDelay="0.00" arrival="174.00" arrivalLane="204[1][1]_1" arrivalPos="435.51" arrivalSpeed="13.53" duration="144.00" routeLength="1470.66" waitingTime="20.00" waitingCount="1" stopTime="0.00" timeLoss="42.63" rerouteNo="0" devices="tripinfo_Pepoli_10_18" vType="passenger1" speedFactor="1.05" vaporized=""/>
    <tripinfo id="Togliatti_71_0" depart="0.00" departLane="85_1" departPos="0.00" departSpeed="0.00" departDelay="0.00" arrival="176.00" arrivalLane="209_0" arrivalPos="395.59" arrivalSpeed="12.71" duration="176.00" routeLength="2025.50" waitingTime="12.00" waitingCount="1" stopTime="0.00" timeLoss="28.52" rerouteNo="0" devices="tripinfo_Togliatti_71_0" vType="passenger2b" speedFactor="1.00" vaporized=""/>
    <tripinfo id="Pepoli_10_11" depart="19.00" departLane="210_0" departPos="0.00" departSpeed="0.00" departDelay="1.00" arrival="178.00" arrivalLane="204[1][1]_0" arrivalPos="435.51" arrivalSpeed="12.09" duration="159.00" routeLength="1470.66" waitingTime="23.00" waitingCount="1" stopTime="0.00" timeLoss="40.30" rerouteNo="0" devices="tripinfo_Pepoli_10_11" vType="passenger4" speedFactor="0.90" vaporized=""/>
    <tripinfo id="Silvani_7_7" depart="16.00" departLane="203[0]_1" departPos="0.00" departSpeed="0.00" departDelay="0.00" arrival="179.00" arrivalLane="209_0" arrivalPos="395.59" arrivalSpeed="13.42" duration="163.00" routeLength="1454.90" waitingTime="47.00" waitingCount="1" stopTime="0.00" timeLoss="63.66" rerouteNo="0" devices="tripinfo_Silvani_7_7" vType="passenger2a" speedFactor="1.06" vaporized=""/>
    <tripinfo id="Togliatti_3_18" depart="25.00" departLane="85_0" departPos="0.00" departSpeed="0.00" departDelay="0.00" arrival="179.00" arrivalLane="14_0" arrivalPos="77.26" arrivalSpeed="12.43" duration="154.00" routeLength="1107.06" waitingTime="46.00" waitingCount="1" stopTime="0.00" timeLoss="63.82" rerouteNo="0" devices="tripinfo_Togliatti_3_18" vType="passenger2a" speedFactor="0.92" vaporized=""/>
    <tripinfo id="Pepoli_8_62" depart="106.00" departLane="210_0" departPos="0.00" departSpeed="0.00" departDelay="0.00" arrival="179.00" arrivalLane="134b_0" arrivalPos="156.17" arrivalSpeed="11.26" duration="73.00" routeLength="692.71" waitingTime="3.00" waitingCount="1" stopTime="0.00" timeLoss="16.03" rerouteNo="0" devices="tripinfo_Pepoli_8_62" vType="passenger1" speedFactor="0.90" vaporized=""/>
    <tripinfo id="Pepoli_10_20" depart="34.00" departLane="210_0" departPos="0.00" departSpeed="0.00" departDelay="0.00" arrival="180.00" arrivalLane="204[1][1]_0" arrivalPos="435.51" arrivalSpeed="13.08" duration="146.00" routeLength="1470.66" waitingTime="7.00" waitingCount="2" stopTime="0.00" timeLoss="36.39" rerouteNo="0" devices="tripinfo_Pepoli_10_20" vType="passenger2a" speedFactor="0.97" vaporized=""/>
    <tripinfo id="Togliatti_3_31" depart="44.00" departLane="85_0" departPos="0.00" departSpeed="0.00" departDelay="0.00" arrival="180.00" arrivalLane="14_0" arrivalPos="77.26" arrivalSpeed="13.34" duration="136.00" routeLength="1107.06" waitingTime="35.00" waitingCount="1" stopTime="0.00" timeLoss="57.65" rerouteNo="0" devices="tripinfo_Togliatti_3_31" vType="passenger1" speedFactor="1.04" vaporized=""/>
    <tripinfo id="Pepoli_8_70" depart="121.00" departLane="210_0" departPos="0.00" departSpeed="0.00" departDelay="1.00" arrival="180.00" arrivalLane="134b_0" arrivalPos="156.17" arrivalSpeed="13.03" duration="59.00" routeLength="692.71" waitingTime="0.00" waitingCount="0" stopTime="0.00" timeLoss="13.51" rerouteNo="0" devices="tripinfo_Pepoli_8_70" vType="passenger1" speedFactor="1.11" vaporized=""/>
    <tripinfo id="Togliatti_2_32" depart="47.00" departLane="85_0" departPos="0.00" departSpeed="0.00" departDelay="2.00" arrival="181.00" arrivalLane="77[1][1]_0" arrivalPos="463.98" arrivalSpeed="13.74" duration="134.00" routeLength="1145.48" waitingTime="34.00" waitingCount="1" stopTime="0.00" timeLoss="51.81" rerouteNo="0" devices="tripinfo_Togliatti_2_32" vType="passenger3" speedFactor="1.04" vaporized=""/>
    <tripinfo id="Silvani_7_15" depart="35.00" departLane="203[0]_1" departPos="0.00" departSpeed="0.00" departDelay="0.00" arrival="183.00" arrivalLane="209_1" arrivalPos="395.59" arrivalSpeed="14.07" duration="148.00" routeLength="1451.40" waitingTime="30.00" waitingCount="1" stopTime="0.00" timeLoss="50.15" rerouteNo="0" devices="tripinfo_Silvani_7_15" vType="passenger5" speedFactor="1.08" vaporized=""/>
    <tripinfo id="Pepoli_10_19" depart="32.00" departLane="210_1" departPos="0.00" departSpeed="0.00" departDelay="0.00" arrival="184.00" arrivalLane="204[1][1]_0" arrivalPos="435.51" arrivalSpeed="11.92" duration="152.00" routeLength="1470.66" waitingTime="13.00" waitingCount="1" stopTime="0.00" timeLoss="35.02" rerouteNo="0" devices="tripinfo_Pepoli_10_19" vType="passenger1" speedFactor="0.91" vaporized=""/>
    <tripinfo id="Pepoli_8_75" depart="128.00" departLane="210_0" departPos="0.00" departSpeed="0.00" departDelay="0.00" arrival="184.00" arrivalLane="134b_0" arrivalPos="156.17" arrivalSpeed="16.03" duration="56.00" routeLength="692.71" waitingTime="0.00" waitingCount="0" stopTime="0.00" timeLoss="13.94" rerouteNo="0" devices="tripinfo_Pepoli_8_75" vType="passenger2b" speedFactor="1.22" vaporized=""/>
    <tripinfo id="Silvani_7_2" depart="4.00" departLane="203[0]_1" departPos="0.00" departSpeed="0.00" departDelay="0.00" arrival="185.00" arrivalLane="209_0" arrivalPos="395.59" arrivalSpeed="12.34" duration="181.00" routeLength="1454.90" waitingTime="58.00" waitingCount="1" stopTime="0.00" timeLoss="70.77" rerouteNo="0" devices="tripinfo_Silvani_7_2" vType="passenger1" speedFactor="0.95" vaporized=""/>
    <tripinfo id="bus_81_0" depart="4.00" departLane="55_0" departPos="0.00" departSpeed="0.00" departDelay="4.00" arrival="188.00" arrivalLane="114_0" arrivalPos="691.06" arrivalSpeed="13.42" duration="184.00" routeLength="1059.82" waitingTime="36.00" waitingCount="2" stopTime="40.00" timeLoss="53.14" rerouteNo="0" devices="tripinfo_bus_81_0" vType="bus" speedFactor="1.00" vaporized=""/>
    <tripinfo id="Costa_3_33" depart="91.00" departLane="78[0]_0" departPos="0.00" departSpeed="0.00" departDelay="5.00" arrival="188.00" arrivalLane="14_0" arrivalPos="77.26" arrivalSpeed="12.41" duration="97.00" routeLength="850.23" waitingTime="2.00" waitingCount="1" stopTime="0.00" timeLoss="31.93" rerouteNo="0" devices="tripinfo_Costa_3_33" vType="passenger2b" speedFactor="0.95" vaporized=""/>
    <tripinfo id="Turati_10_0" depart="0.00" departLane="195_0" departPos="0.00" departSpeed="0.00" departDelay="0.00" arrival="189.00" arrivalLane="204[1][1]_1" arrivalPos="435.51" arrivalSpeed="11.25" duration="189.00" routeLength="2032.35" waitingTime="0.00" waitingCount="0" stopTime="0.00" timeLoss="18.91" rerouteNo="0" devices="tripinfo_Turati_10_0" vType="passenger4" speedFactor="0.89" vaporized=""/>
    <tripinfo id="Silvani_7_11" depart="25.00" departLane="203[0]_0" departPos="0.00" departSpeed="0.00" departDelay="0.00" arrival="189.00" arrivalLane="209_2" arrivalPos="395.59" arrivalSpeed="13.07" duration="164.00" routeLength="1451.40" waitingTime="39.00" waitingCount="1" stopTime="0.00" timeLoss="62.72" rerouteNo="0" devices="tripinfo_Silvani_7_11" vType="passenger1" speedFactor="1.03" vaporized=""/>
    <tripinfo id="Pepoli_10_22" depart="37.00" departLane="210_1" departPos="0.00" departSpeed="0.00" departDelay="0.00" arrival="189.00" arrivalLane="204[1][1]_0" arrivalPos="435.51" arrivalSpeed="11.36" duration="152.00" routeLength="1470.66" waitingTime="2.00" waitingCount="1" stopTime="0.00" timeLoss="28.91" rerouteNo="0" devices="tripinfo_Pepoli_10_22" vType="passenger2a" speedFactor="0.87" vaporized=""/>
    <tripinfo id="Vittorio_Veneto_1_10" depart="45.00" departLane="224[0]_0" departPos="0.00" departSpeed="0.00" departDelay="0.00" arrival="189.00" arrivalLane="86_0" arrivalPos="321.19" arrivalSpeed="13.94" duration="144.00" routeLength="1143.28" waitingTime="47.00" waitingCount="1" stopTime="0.00" timeLoss="60.36" rerouteNo="0" devices="tripinfo_Vittorio_Veneto_1_10" vType="passenger1" speedFactor="1.01" vaporized=""/>
    <tripinfo id="bus_91_0" depart="8.00" departLane="55_0" departPos="0.00" departSpeed="0.00" departDelay="8.00" arrival="190.00" arrivalLane="114_0" arrivalPos="691.06" arrivalSpeed="13.36" duration="182.00" routeLength="1059.82" waitingTime="34.00" waitingCount="2" stopTime="40.00" timeLoss="46.15" rerouteNo="0" devices="tripinfo_bus_91_0" vType="bus" speedFactor="1.00" vaporized=""/>
    <tripinfo id="Silvani_7_5" depart="11.00" departLane="203[0]_0" departPos="0.00" departSpeed="0.00" departDelay="0.00" arrival="190.00" arrivalLane="209_0" arrivalPos="395.59" arrivalSpeed="12.34" duration="179.00" routeLength="1458.40" waitingTime="52.00" waitingCount="1" stopTime="0.00" timeLoss="67.17" rerouteNo="0" devices="tripinfo_Silvani_7_5" vType="passenger2a" speedFactor="0.94" vaporized=""/>
    <tripinfo id="Silvani_7_20" depart="47.00" departLane="203[0]_1" departPos="0.00" departSpeed="0.00" departDelay="0.00" arrival="191.00" arrivalLane="209_1" arrivalPos="395.59" arrivalSpeed="13.34" duration="144.00" routeLength="1451.40" waitingTime="18.00" waitingCount="1" stopTime="0.00" timeLoss="40.75" rerouteNo="0" devices="tripinfo_Silvani_7_20" vType="passenger3" speedFactor="1.01" vaporized=""/>
    <tripinfo id="Togliatti_3_39" depart="55.00" departLane="85_0" departPos="0.00" departSpeed="0.00" departDelay="0.00" arrival="191.00" arrivalLane="14_0" arrivalPos="77.26" arrivalSpeed="12.69" duration="136.00" routeLength="1107.06" waitingTime="28.00" waitingCount="1" stopTime="0.00" timeLoss="51.77" rerouteNo="0" devices="tripinfo_Togliatti_3_39" vType="passenger2b" speedFactor="0.98" vaporized=""/>
    <tripinfo id="Turati_10_1" depart="34.00" departLane="195_0" departPos="0.00" departSpeed="0.00" departDelay="0.00" arrival="194.00" arrivalLane="204[1][1]_1" arrivalPos="435.51" arrivalSpeed="14.35" duration="160.00" routeLength="2032.35" waitingTime="0.00" waitingCount="0" stopTime="0.00" timeLoss="20.22" rerouteNo="0" devices="tripinfo_Turati_10_1" vType="passenger1" speedFactor="1.07" vaporized=""/>
    <tripinfo id="Audinot_10_2" depart="42.00" departLane="131_0" departPos="0.00" departSpeed="0.00" departDelay="0.00" arrival="194.00" arrivalLane="204[1][1]_0" arrivalPos="435.51" arrivalSpeed="11.59" duration="152.00" routeLength="1645.14" waitingTime="0.00" waitingCount="0" stopTime="0.00" timeLoss="15.87" rerouteNo="0" devices="tripinfo_Audinot_10_2" vType="passenger2b" speedFactor="0.89" vaporized=""/>
    <tripinfo id="Costa_3_38" depart="106.00" departLane="78[0]_0" departPos="0.00" departSpeed="0.00" departDelay="7.00" arrival="194.00" arrivalLane="14_0" arrivalPos="77.26" arrivalSpeed="13.05" duration="88.00" routeLength="850.23" waitingTime="2.00" waitingCount="1" stopTime="0.00" timeLoss="22.87" rerouteNo="0" devices="tripinfo_Costa_3_38" vType="passenger1" speedFactor="0.96" vaporized=""/>
    <tripinfo id="Silvani_11_0" depart="0.00" departLane="203[0]_0" departPos="0.00" departSpeed="0.00" departDelay="0.00" arrival="195.00" arrivalLane="114_0" arrivalPos="691.06" arrivalSpeed="11.44" duration="195.00" routeLength="1118.23" waitingTime="74.00" waitingCount="3" stopTime="0.00" timeLoss="97.24" rerouteNo="0" devices="tripinfo_Silvani_11_0" vType="passenger3" speedFactor="0.83" vaporized=""/>
    <tripinfo id="Silvani_7_3" depart="7.00" departLane="203[0]_0" departPos="0.00" departSpeed="0.00" departDelay="0.00" arrival="195.00" arrivalLane="209_0" arrivalPos="395.59" arrivalSpeed="11.83" duration="188.00" routeLength="1451.40" waitingTime="53.00" waitingCount="2" stopTime="0.00" timeLoss="67.96" rerouteNo="0" devices="tripinfo_Silvani_7_3" vType="passenger1" speedFactor="0.87" vaporized=""/>
    <tripinfo id="Silvani_11_1" depart="3.00" departLane="203[0]_0" departPos="0.00" departSpeed="0.00" departDelay="1.00" arrival="196.00" arrivalLane="114_0" arrivalPos="691.06" arrivalSpeed="12.12" duration="193.00" routeLength="1118.23" waitingTime="72.00" waitingCount="3" stopTime="0.00" timeLoss="105.54" rerouteNo="0" devices="tripinfo_Silvani_11_1" vType="passenger2b" speedFactor="0.92" vaporized=""/>
    <tripinfo id="Togliatti_2_40" depart="57.00" departLane="85_0" departPos="0.00" departSpeed="0.00" departDelay="1.00" arrival="196.00" arrivalLane="77[1][1]_0" arrivalPos="463.98" arrivalSpeed="11.92" duration="139.00" routeLength="1145.48" waitingTime="26.00" waitingCount="1" stopTime="0.00" timeLoss="50.20" rerouteNo="0" devices="tripinfo_Togliatti_2_40" vType="passenger2b" speedFactor="0.96" vaporized=""/>
    <tripinfo id="Togliatti_3_56" depart="79.00" departLane="85_0" departPos="0.00" departSpeed="0.00" departDelay="0.00" arrival="196.00" arrivalLane="14_0" arrivalPos="77.26" arrivalSpeed="15.40" duration="117.00" routeLength="1110.28" waitingTime="16.00" waitingCount="1" stopTime="0.00" timeLoss="44.41" rerouteNo="0" devices="tripinfo_Togliatti_3_56" vType="passenger1" speedFactor="1.13" vaporized=""/>
    <tripinfo id="Togliatti_2_45" depart="64.00" departLane="85_0" departPos="0.00" departSpeed="0.00" departDelay="0.00" arrival="197.00" arrivalLane="77[1][1]_0" arrivalPos="463.98" arrivalSpeed="13.53" duration="133.00" routeLength="1145.48" waitingTime="24.00" waitingCount="1" stopTime="0.00" timeLoss="50.81" rerouteNo="0" devices="tripinfo_Togliatti_2_45" vType="passenger3" speedFactor="1.03" vaporized=""/>
    <tripinfo id="Silvani_11_8" depart="18.00" departLane="203[0]_0" departPos="0.00" departSpeed="0.00" departDelay="0.00" arrival="198.00" arrivalLane="114_0" arrivalPos="691.06" arrivalSpeed="12.09" duration="180.00" routeLength="1118.23" waitingTime="60.00" waitingCount="2" stopTime="0.00" timeLoss="95.73" rerouteNo="0" devices="tripinfo_Silvani_11_8" vType="passenger3" speedFactor="0.96" vaporized=""/>
    <tripinfo id="Silvani_11_9" depart="21.00" departLane="203[0]_0" departPos="0.00" departSpeed="0.00" departDelay="0.00" arrival="199.00" arrivalLane="114_0" arrivalPos="691.06" arrivalSpeed="14.76" duration="178.00" routeLength="1118.23" waitingTime="60.00" waitingCount="2" stopTime="0.00" timeLoss="107.72" rerouteNo="0" devices="tripinfo_Silvani_11_9" vType="passenger4" speedFactor="1.15" vaporized=""/>
    <tripinfo id="Silvani_11_12" depart="28.00" departLane="203[0]_0" departPos="0.00" departSpeed="0.00" departDelay="0.00" arrival="201.00" arrivalLane="114_0" arrivalPos="691.06" arrivalSpeed="13.02" duration="173.00" routeLength="1118.23" waitingTime="55.00" waitingCount="2" stopTime="0.00" timeLoss="90.02" rerouteNo="0" devices="tripinfo_Silvani_11_12" vType="passenger2b" speedFactor="0.98" vaporized=""/>
    <tripinfo id="Silvani_11_13" depart="31.00" departLane="203[0]_0" departPos="0.00" departSpeed="0.00" departDelay="1.00" arrival="202.00" arrivalLane="114_0" arrivalPos="691.06" arrivalSpeed="14.20" duration="171.00" routeLength="1118.23" waitingTime="52.00" waitingCount="2" stopTime="0.00" timeLoss="94.80" rerouteNo="0" devices="tripinfo_Silvani_11_13" vType="passenger1" speedFactor="1.06" vaporized=""/>
    <tripinfo id="Togliatti_2_47" depart="67.00" departLane="85_0" departPos="0.00" departSpeed="0.00" departDelay="1.00" arrival="202.00" arrivalLane="77[1][1]_0" arrivalPos="463.98" arrivalSpeed="13.59" duration="135.00" routeLength="1145.48" waitingTime="23.00" waitingCount="1" stopTime="0.00" timeLoss="48.26" rerouteNo="0" devices="tripinfo_Togliatti_2_47" vType="passenger3" speedFactor="0.98" vaporized=""/>
    <tripinfo id="Silvani_11_14" depart="33.00" departLane="203[0]_0" departPos="0.00" departSpeed="0.00" departDelay="0.00" arrival="204.00" arrivalLane="114_0" arrivalPos="691.06" arrivalSpeed="15.26" duration="171.00" routeLength="1118.23" waitingTime="51.00" waitingCount="2" stopTime="0.00" timeLoss="100.12" rerouteNo="0" devices="tripinfo_Silvani_11_14" vType="passenger3" speedFactor="1.14" vaporized=""/>
    <tripinfo id="Silvani_11_16" depart="37.00" departLane="203[0]_0" departPos="0.00" departSpeed="0.00" departDelay="0.00" arrival="206.00" arrivalLane="114_0" arrivalPos="691.06" arrivalSpeed="13.36" duration="169.00" routeLength="1118.23" waitingTime="49.00" waitingCount="2" stopTime="0.00" timeLoss="89.50" rerouteNo="0" devices="tripinfo_Silvani_11_16" vType="passenger3" speedFactor="1.02" vaporized=""/>