<?xml version="1.0" encoding="UTF-8"?>

<!-- generated on 2026-03-09T10:03:22.115298-05:00 by Eclipse SUMO sumo 1.26.0
<sumoConfiguration xmlns:xsi="http://www.w3.org/2001/XMLSchema-instance" xsi:noNamespaceSchemaLocation="http://sumo.dlr.de/xsd/sumoConfiguration.xsd">

    <input>
        <net-file value="acosta_buslanes.net.xml"/>
        <route-files value="acosta.rou.xml,acosta_busses.rou.xml"/>
        <additional-files value="acosta_vtypes.add.xml,acosta_detectors.add.xml,acosta_bus_stops.add.xml,acosta_tls.add.xml"/>
    </input>

    <output>
        <tripinfo-output value="tripinfo.xml"/>
    </output>

    <report>
        <log value="sumo_log.txt"/>
        <no-step-log value="true"/>
    </report>

    <gui_only>
        <gui-settings-file value="settings.gui.xml"/>
    </gui_only>

</sumoConfiguration>
-->

<tripinfos xmlns:xsi="http://www.w3.org/2001/XMLSchema-instance" xsi:noNamespaceSchemaLocation="http://sumo.dlr.de/xsd/tripinfo_file.xsd">
    <tripinfo id="Pepoli_8_16" depart="27.00" departLane="210_0" departPos="0.00" departSpeed="0.00" departDelay="0.00" arrival="82.00" arrivalLane="134b_0" arrivalPos="156.17" arrivalSpeed="14.48" duration="55.00" routeLength="692.71" waitingTime="0.00" waitingCount="0" stopTime="0.00" timeLoss="7.50" rerouteNo="0" devices="tripinfo_Pepoli_8_16" vType="passenger1" speedFactor="1.09" vaporized=""/>
    <tripinfo id="Pepoli_8_21" depart="37.00" departLane="210_0" departPos="0.00" departSpeed="0.00" departDelay="1.00" arrival="91.00" arrivalLane="134b_0" arrivalPos="156.17" arrivalSpeed="16.58" duration="54.00" routeLength="692.71" waitingTime="0.00" waitingCount="0" stopTime="0.00" timeLoss="13.41" rerouteNo="0" devices="tripinfo_Pepoli_8_21" vType="passenger1" speedFactor="1.25" vaporized=""/>
    <tripinfo id="Pepoli_8_23" depart="39.00" departLane="210_0" departPos="0.00" departSpeed="0.00" departDelay="0.00" arrival="96.00" arrivalLane="134b_0" arrivalPos="156.17" arrivalSpeed="14.85" duration="57.00" routeLength="692.71" waitingTime="0.00" waitingCount="0" stopTime="0.00" timeLoss="11.27" rerouteNo="0" devices="tripinfo_Pepoli_8_23" vType="passenger1" speedFactor="1.13" vaporized=""/>
    <tripinfo id="Togliatti_2_8" depart="11.00" departLane="85_0" departPos="0.00" departSpeed="0.00" departDelay="0.00" arrival="101.00" arrivalLane="77[1][1]_0" arrivalPos="463.98" arrivalSpeed="14.77" duration="90.00" routeLength="1145.48" waitingTime="0.00" waitingCount="0" stopTime="0.00" timeLoss="12.42" rerouteNo="0" devices="tripinfo_Togliatti_2_8" vType="passenger2a" speedFactor="1.10" vaporized=""/>
    <tripinfo id="Costa_12_0" depart="0.00" departLane="78[0]_0" departPos="0.00" departSpeed="0.00" departDelay="0.00" arrival="112.00" arrivalLane="136_0" arrivalPos="186.20" arrivalSpeed="14.68" duration="112.00" routeLength="1416.38" waitingTime="0.00" waitingCount="0" stopTime="0.00" timeLoss="14.81" rerouteNo="0" devices="tripinfo_Costa_12_0" vType="passenger1" speedFactor="1.08" vaporized=""/>
    <tripinfo id="Costa_1_2" depart="8.00" departLane="78[0]_0" departPos="0.00" departSpeed="0.00" departDelay="3.00" arrival="113.00" arrivalLane="86_0" arrivalPos="321.19" arrivalSpeed="14.05" duration="105.00" routeLength="1191.67" waitingTime="2.00" waitingCount="1" stopTime="0.00" timeLoss="18.73" rerouteNo="0" devices="tripinfo_Costa_1_2" vType="passenger2b" speedFactor="1.02" vaporized=""/>
    <tripinfo id="Costa_1_4" depart="14.00" departLane="78[0]_0" departPos="0.00" departSpeed="0.00" departDelay="4.00" arrival="113.00" arrivalLane="86_1" arrivalPos="321.19" arrivalSpeed="13.08" duration="99.00" routeLength="1182.48" waitingTime="0.00" waitingCount="0" stopTime="0.00" timeLoss="10.93" rerouteNo="0" devices="tripinfo_Costa_1_4" vType="passenger2a" speedFactor="0.99" vaporized=""/>
    <tripinfo id="Costa_12_1" depart="6.00" departLane="78[0]_0" departPos="0.00" departSpeed="0.00" departDelay="4.00" arrival="118.00" arrivalLane="136_0" arrivalPos="186.20" arrivalSpeed="14.96" duration="112.00" routeLength="1416.38" waitingTime="0.00" waitingCount="0" stopTime="0.00" timeLoss="15.34" rerouteNo="0" devices="tripinfo_Costa_12_1" vType="passenger2b" speedFactor="1.09" vaporized=""/>
    <tripinfo id="Audinot_7_0" depart="0.00" departLane="131_0" departPos="0.00" departSpeed="0.00" departDelay="0.00" arrival="124.00" arrivalLane="209_0" arrivalPos="395.59" arrivalSpeed="13.54" duration="124.00" routeLength="873.23" waitingTime="44.00" waitingCount="1" stopTime="0.00" timeLoss="57.45" rerouteNo="0" devices="tripinfo_Audinot_7_0" vType="passenger4" speedFactor="0.98" vaporized=""/>
    <tripinfo id="Costa_3_21" depart="55.00" departLane="78[0]_0" departPos="0.00" departSpeed="0.00" departDelay="1.00" arrival="128.00" arrivalLane="14_0" arrivalPos="77.26" arrivalSpeed="14.45" duration="73.00" routeLength="850.23" waitingTime="0.00" waitingCount="0" stopTime="0.00" timeLoss="17.32" rerouteNo="0" devices="tripinfo_Costa_3_21" vType="passenger1" speedFactor="1.13" vaporized=""/>
    <tripinfo id="Costa_12_3" depart="11.00" departLane="78[0]_0" departPos="0.00" departSpeed="0.00" departDelay="4.00" arrival="131.00" arrivalLane="136_0" arrivalPos="186.20" arrivalSpeed="12.82" duration="120.00" routeLength="1416.38" waitingTime="0.00" waitingCount="0" stopTime="0.00" timeLoss="16.15" rerouteNo="0" devices="tripinfo_Costa_12_3" vType="passenger1" speedFactor="1.01" vaporized=""/>
    <tripinfo id="Costa_12_7" depart="20.00" departLane="78[0]_0" departPos="0.00" departSpeed="0.00" departDelay="2.00" arrival="134.00" arrivalLane="136_0" arrivalPos="186.20" arrivalSpeed="14.88" duration="114.00" routeLength="1416.38" waitingTime="0.00" waitingCount="0" stopTime="0.00" timeLoss="18.55" rerouteNo="0" devices="tripinfo_Costa_12_7" vType="passenger5" speedFactor="1.10" vaporized=""/>
    <tripinfo id="Costa_12_11" depart="29.00" departLane="78[0]_0" departPos="0.00" departSpeed="0.00" departDelay="1.00" arrival="144.00" arrivalLane="136_0" arrivalPos="186.20" arrivalSpeed="13.53" duration="115.00" routeLength="1413.55" waitingTime="0.00" waitingCount="0" stopTime="0.00" timeLoss="18.09" rerouteNo="0" devices="tripinfo_Costa_12_11" vType="passenger2a" speedFactor="1.08" vaporized=""/>
    <tripinfo id="Turati_3_2" depart="69.00" departLane="195_0" departPos="0.00" departSpeed="0.00" departDelay="0.00" arrival="148.00" arrivalLane="14_0" arrivalPos="77.26" arrivalSpeed="13.71" duration="79.00" routeLength="947.57" waitingTime="0.00" waitingCount="0" stopTime="0.00" timeLoss="9.32" rerouteNo="0" devices="tripinfo_Turati_3_2" vType="ignoring1" speedFactor="1.00" vaporized=""/>
    <tripinfo id="Pepoli_8_25" depart="42.00" departLane="210_0" departPos="0.00" departSpeed="0.00" departDelay="0.00" arrival="151.00" arrivalLane="134b_0" arrivalPos="156.17" arrivalSpeed="13.24" duration="109.00" routeLength="692.71" waitingTime="45.00" waitingCount="1" stopTime="0.00" timeLoss="59.72" rerouteNo="0" devices="tripinfo_Pepoli_8_25" vType="passenger2a" speedFactor="1.03" vaporized=""/>
    <tripinfo id="Pepoli_8_28" depart="48.00" departLane="210_0" departPos="0.00" departSpeed="0.00" departDelay="0.00" arrival="153.00" arrivalLane="134b_0" arrivalPos="156.17" arrivalSpeed="15.49" duration="105.00" routeLength="692.71" waitingTime="42.00" waitingCount="1" stopTime="0.00" timeLoss="59.39" rerouteNo="0" devices="tripinfo_Pepoli_8_28" vType="passenger3" speedFactor="1.13" vaporized=""/>
    <tripinfo id="Silvani_11_9" depart="21.00" departLane="203[0]_0" departPos="0.00" departSpeed="0.00" departDelay="0.00" arrival="157.00" arrivalLane="114_2" arrivalPos="692.70" arrivalSpeed="15.81" duration="136.00" routeLength="1114.25" waitingTime="46.00" waitingCount="1" stopTime="0.00" timeLoss="65.67" rerouteNo="0" devices="tripinfo_Silvani_11_9" vType="passenger4" speedFactor="1.15" vaporized=""/>
    <tripinfo id="Pepoli_3_0" depart="0.00" departLane="210_2" departPos="0.00" departSpeed="0.00" departDelay="0.00" arrival="158.00" arrivalLane="14_0" arrivalPos="77.26" arrivalSpeed="12.93" duration="158.00" routeLength="1941.55" waitingTime="0.00" waitingCount="0" stopTime="0.00" timeLoss="16.07" rerouteNo="0" devices="tripinfo_Pepoli_3_0" vType="ignoring2b" speedFactor="1.00" vaporized=""/>
    <tripinfo id="Togliatti_12_15" depart="21.00" departLane="85_2" departPos="0.00" departSpeed="0.00" departDelay="0.00" arrival="158.00" arrivalLane="136_0" arrivalPos="186.20" arrivalSpeed="12.82" duration="137.00" routeLength="909.95" waitingTime="51.00" waitingCount="1" stopTime="0.00" timeLoss="65.25" rerouteNo="0" devices="tripinfo_Togliatti_12_15" vType="passenger3" speedFactor="0.94" vaporized=""/>
    <tripinfo id="bus_13_0" depart="0.00" departLane="55_0" departPos="0.00" departSpeed="0.00" departDelay="0.00" arrival="159.00" arrivalLane="114_1" arrivalPos="692.70" arrivalSpeed="13.85" duration="159.00" routeLength="1058.08" waitingTime="19.00" waitingCount="1" stopTime="40.00" timeLoss="29.13" rerouteNo="0" devices="tripinfo_bus_13_0" vType="bus" speedFactor="1.00" vaporized=""/>
    <tripinfo id="bus_81_0" depart="4.00" departLane="55_0" departPos="0.00" departSpeed="0.00" departDelay="4.00" arrival="160.00" arrivalLane="114_0" arrivalPos="692.70" arrivalSpeed="13.10" duration="156.00" routeLength="1058.08" waitingTime="13.00" waitingCount="1" stopTime="40.00" timeLoss="27.83" rerouteNo="0" devices="tripinfo_bus_81_0" vType="bus" speedFactor="1.00" vaporized=""/>
    <tripinfo id="Pepoli_3_2" depart="3.00" departLane="210_2" departPos="0.00" departSpeed="0.00" departDelay="0.00" arrival="161.00" arrivalLane="14_0" arrivalPos="77.26" arrivalSpeed="13.54" duration="158.00" routeLength="1941.55" waitingTime="0.00" waitingCount="0" stopTime="0.00" timeLoss="15.92" rerouteNo="0" devices="tripinfo_Pepoli_3_2" vType="ignoring1" speedFactor="1.00" vaporized=""/>
    <tripinfo id="Togliatti_12_24" depart="34.00" departLane="85_2" departPos="0.00" departSpeed="0.00" departDelay="0.00" arrival="161.00" arrivalLane="136_0" arrivalPos="186.20" arrivalSpeed="12.03" duration="127.00" routeLength="909.95" waitingTime="39.00" waitingCount="1" stopTime="0.00" timeLoss="55.63" rerouteNo="0" devices="tripinfo_Togliatti_12_24" vType="passenger1" speedFactor="0.95" vaporized=""/>
    <tripinfo id="Togliatti_12_48" depart="68.00" departLane="85_2" departPos="0.00" departSpeed="0.00" departDelay="0.00" arrival="162.00" arrivalLane="136_0" arrivalPos="186.20" arrivalSpeed="14.07" duration="94.00" routeLength="909.95" waitingTime="9.00" waitingCount="1" stopTime="0.00" timeLoss="29.09" rerouteNo="0" devices="tripinfo_Togliatti_12_48" vType="passenger2a" speedFactor="1.04" vaporized=""/>
    <tripinfo id="Silvani_11_8" depart="18.00" departLane="203[0]_0" departPos="0.00" departSpeed="0.00" departDelay="0.00" arrival="164.00" arrivalLane="114_1" arrivalPos="692.70" arrivalSpeed="12.77" duration="146.00" routeLength="1114.25" waitingTime="47.00" waitingCount="1" stopTime="0.00" timeLoss="61.55" rerouteNo="0" devices="tripinfo_Silvani_11_8" vType="passenger3" speedFactor="0.96" vaporized=""/>
    <tripinfo id="Silvani_11_13" depart="30.00" departLane="203[0]_0" departPos="0.00" departSpeed="0.00" departDelay="0.00" arrival="164.00" arrivalLane="114_2" arrivalPos="692.70" arrivalSpeed="13.98" duration="134.00" routeLength="1114.25" waitingTime="41.00" waitingCount="1" stopTime="0.00" timeLoss="57.63" rerouteNo="0" devices="tripinfo_Silvani_11_13" vType="passenger1" speedFactor="1.06" vaporized=""/>
    <tripinfo id="Togliatti_12_59" depart="84.00" departLane="85_2" departPos="0.00" departSpeed="0.00" departDelay="0.00" arrival="164.00" arrivalLane="136_0" arrivalPos="186.20" arrivalSpeed="15.07" duration="80.00" routeLength="909.95" waitingTime="0.00" waitingCount="0" stopTime="0.00" timeLoss="19.44" rerouteNo="0" devices="tripinfo_Togliatti_12_59" vType="passenger1" speedFactor="1.12" vaporized=""/>
    <tripinfo id="bus_91_0" depart="8.00" departLane="55_0" departPos="0.00" departSpeed="0.00" departDelay="8.00" arrival="165.00" arrivalLane="114_0" arrivalPos="692.70" arrivalSpeed="13.24" duration="157.00" routeLength="1058.08" waitingTime="18.00" waitingCount="2" stopTime="40.00" timeLoss="22.72" rerouteNo="0" devices="tripinfo_bus_91_0" vType="bus" speedFactor="1.00" vaporized=""/>
    <tripinfo id="Silvani_11_0" depart="0.00" departLane="203[0]_0" departPos="0.00" departSpeed="0.00" departDelay="0.00" arrival="166.00" arrivalLane="114_1" arrivalPos="692.70" arrivalSpeed="10.22" duration="166.00" routeLength="1114.25" waitingTime="56.00" waitingCount="1" stopTime="0.00" timeLoss="69.21" rerouteNo="0" devices="tripinfo_Silvani_11_0" vType="passenger3" speedFactor="0.83" vaporized=""/>
    <tripinfo id="Pepoli_10_18" depart="30.00" departLane="210_0" departPos="0.00" departSpeed="0.00" departDelay="0.00" arrival="166.00" arrivalLane="204[1][1]_0" arrivalPos="435.51" arrivalSpeed="14.13" duration="136.00" routeLength="1470.65" waitingTime="21.00" waitingCount="1" stopTime="0.00" timeLoss="35.13" rerouteNo="0" devices="tripinfo_Pepoli_10_18" vType="passenger1" speedFactor="1.05" vaporized=""/>
    <tripinfo id="Silvani_11_14" depart="33.00" departLane="203[0]_0" departPos="0.00" departSpeed="0.00" departDelay="0.00" arrival="166.00" arrivalLane="114_2" arrivalPos="692.70" arrivalSpeed="14.75" duration="133.00" routeLength="1114.25" waitingTime="40.00" waitingCount="1" stopTime="0.00" timeLoss="62.02" rerouteNo="0" devices="tripinfo_Silvani_11_14" vType="passenger3" speedFactor="1.14" vaporized=""/>
    <tripinfo id="Silvani_11_1" depart="3.00" departLane="203[0]_0" departPos="0.00" departSpeed="0.00" departDelay="1.00" arrival="168.00" arrivalLane="114_0" arrivalPos="692.70" arrivalSpeed="12.10" duration="165.00" routeLength="1114.25" waitingTime="54.00" waitingCount="1" stopTime="0.00" timeLoss="77.16" rerouteNo="0" devices="tripinfo_Silvani_11_1" vType="passenger2b" speedFactor="0.92" vaporized=""/>
    <tripinfo id="XXI_Aprile_2_12" depart="42.00" departLane="13_0" departPos="0.00" departSpeed="0.00" departDelay="0.00" arrival="168.00" arrivalLane="77[1][1]_0" arrivalPos="463.98" arrivalSpeed="15.24" duration="126.00" routeLength="976.81" waitingTime="36.00" waitingCount="2" stopTime="0.00" timeLoss="61.00" rerouteNo="0" devices="tripinfo_XXI_Aprile_2_12" vType="passenger4" speedFactor="1.10" vaporized=""/>
    <tripinfo id="Pepoli_8_44" depart="75.00" departLane="210_0" departPos="0.00" departSpeed="0.00" departDelay="0.00" arrival="168.00" arrivalLane="134b_0" arrivalPos="156.17" arrivalSpeed="11.20" duration="93.00" routeLength="692.71" waitingTime="18.00" waitingCount="1" stopTime="0.00" timeLoss="32.45" rerouteNo="0" devices="tripinfo_Pepoli_8_44" vType="passenger3" speedFactor="0.85" vaporized=""/>
    <tripinfo id="Vittorio_Veneto_1_4" depart="18.00" departLane="224[0]_0" departPos="0.00" departSpeed="0.00" departDelay="0.00" arrival="169.00" arrivalLane="86_0" arrivalPos="321.19" arrivalSpeed="13.84" duration="151.00" routeLength="1143.28" waitingTime="52.00" waitingCount="1" stopTime="0.00" timeLoss="66.92" rerouteNo="0" devices="tripinfo_Vittorio_Veneto_1_4" vType="passenger1" speedFactor="1.00" vaporized=""/>
    <tripinfo id="Silvani_11_12" depart="28.00" departLane="203[0]_0" departPos="0.00" departSpeed="0.00" departDelay="0.00" arrival="169.00" arrivalLane="114_0" arrivalPos="692.70" arrivalSpeed="12.91" duration="141.00" routeLength="1114.25" waitingTime="42.00" waitingCount="1" stopTime="0.00" timeLoss="58.33" rerouteNo="0" devices="tripinfo_Silvani_11_12" vType="passenger2b" speedFactor="0.98" vaporized=""/>
    <tripinfo id="Silvani_11_16" depart="37.00" departLane="203[0]_0" departPos="0.00" departSpeed="0.00" departDelay="0.00" arrival="169.00" arrivalLane="114_2" arrivalPos="692.70" arrivalSpeed="13.99" duration="132.00" routeLength="1114.25" waitingTime="38.00" waitingCount="1" stopTime="0.00" timeLoss="52.66" rerouteNo="0" devices="tripinfo_Silvani_11_16" vType="passenger3" speedFactor="1.02" vaporized=""/>
    <tripinfo id="Pepoli_8_48" depart="82.00" departLane="210_0" departPos="0.00" departSpeed="0.00" departDelay="0.00" arrival="169.00" arrivalLane="134b_0" arrivalPos="156.17" arrivalSpeed="12.08" duration="87.00" routeLength="692.71" waitingTime="17.00" waitingCount="1" stopTime="0.00" timeLoss="41.13" rerouteNo="0" devices="tripinfo_Pepoli_8_48" vType="passenger2a" speedFactor="1.11" vaporized=""/>
    <tripinfo id="Pepoli_10_10" depart="17.00" departLane="210_0" departPos="0.00" departSpeed="0.00" departDelay="0.00" arrival="170.00" arrivalLane="204[1][1]_1" arrivalPos="435.51" arrivalSpeed="15.22" duration="153.00" routeLength="1470.65" waitingTime="32.00" waitingCount="2" stopTime="0.00" timeLoss="61.79" rerouteNo="0" devices="tripinfo_Pepoli_10_10" vType="passenger2a" speedFactor="1.17" vaporized=""/>
    <tripinfo id="Pepoli_10_4" depart="6.00" departLane="210_0" departPos="0.00" departSpeed="0.00" departDelay="0.00" arrival="171.00" arrivalLane="204[1][1]_0" arrivalPos="435.51" arrivalSpeed="11.55" duration="165.00" routeLength="1470.65" waitingTime="31.00" waitingCount="1" stopTime="0.00" timeLoss="45.24" rerouteNo="0" devices="tripinfo_Pepoli_10_4" vType="passenger2b" speedFactor="0.89" vaporized=""/>
    <tripinfo id="Pepoli_8_51" depart="87.00" departLane="210_0" departPos="0.00" departSpeed="0.00" departDelay="0.00" arrival="171.00" arrivalLane="134b_0" arrivalPos="156.17" arrivalSpeed="11.96" duration="84.00" routeLength="692.71" waitingTime="13.00" waitingCount="1" stopTime="0.00" timeLoss="29.01" rerouteNo="0" devices="tripinfo_Pepoli_8_51" vType="passenger1" speedFactor="0.94" vaporized=""/>
    <tripinfo id="Togliatti_71_2" depart="2.00" departLane="85_1" departPos="0.00" departSpeed="0.00" departDelay="0.00" arrival="172.00" arrivalLane="209_0" arrivalPos="395.59" arrivalSpeed="15.50" duration="170.00" routeLength="2025.50" waitingTime="18.00" waitingCount="1" stopTime="0.00" timeLoss="39.59" rerouteNo="0" devices="tripinfo_Togliatti_71_2" vType="passenger1" speedFactor="1.12" vaporized=""/>
    <tripinfo id="Silvani_7_4" depart="9.00" departLane="203[0]_1" departPos="0.00" departSpeed="0.00" departDelay="0.00" arrival="173.00" arrivalLane="209_2" arrivalPos="395.59" arrivalSpeed="15.56" duration="164.00" routeLength="1451.40" waitingTime="55.00" waitingCount="1" stopTime="0.00" timeLoss="72.72" rerouteNo="0" devices="tripinfo_Silvani_7_4" vType="passenger2a" speedFactor="1.15" vaporized=""/>
    <tripinfo id="Silvani_11_24" depart="57.00" departLane="203[0]_0" departPos="0.00" departSpeed="0.00" departDelay="1.00" arrival="173.00" arrivalLane="114_0" arrivalPos="692.70" arrivalSpeed="14.34" duration="116.00" routeLength="1114.25" waitingTime="20.00" waitingCount="1" stopTime="0.00" timeLoss="39.43" rerouteNo="0" devices="tripinfo_Silvani_11_24" vType="passenger1" speedFactor="1.06" vaporized=""/>
    <tripinfo id="Silvani_11_27" depart="63.00" departLane="203[0]_0" departPos="0.00" departSpeed="0.00" departDelay="0.00" arrival="174.00" arrivalLane="114_1" arrivalPos="692.70" arrivalSpeed="14.50" duration="111.00" routeLength="1114.25" waitingTime="19.00" waitingCount="1" stopTime="0.00" timeLoss="35.67" rerouteNo="0" devices="tripinfo_Silvani_11_27" vType="passenger2a" speedFactor="1.07" vaporized=""/>
    <tripinfo id="Togliatti_71_0" depart="0.00" departLane="85_1" departPos="0.00" departSpeed="0.00" departDelay="0.00" arrival="176.00" arrivalLane="209_0" arrivalPos="395.59" arrivalSpeed="13.69" duration="176.00" routeLength="2025.50" waitingTime="13.00" waitingCount="1" stopTime="0.00" timeLoss="28.52" rerouteNo="0" devices="tripinfo_Togliatti_71_0" vType="passenger2b" speedFactor="1.00" vaporized=""/>
    <tripinfo id="Togliatti_3_18" depart="25.00" departLane="85_0" departPos="0.00" departSpeed="0.00" departDelay="0.00" arrival="176.00" arrivalLane="14_0" arrivalPos="77.26" arrivalSpeed="12.05" duration="151.00" routeLength="1110.28" waitingTime="47.00" waitingCount="1" stopTime="0.00" timeLoss="62.06" rerouteNo="0" devices="tripinfo_Togliatti_3_18" vType="passenger2a" speedFactor="0.92" vaporized=""/>
    <tripinfo id="Pepoli_10_19" depart="32.00" departLane="210_1" departPos="0.00" departSpeed="0.00" departDelay="0.00" arrival="176.00" arrivalLane="204[1][1]_0" arrivalPos="435.51" arrivalSpeed="11.96" duration="144.00" routeLength="1470.65" waitingTime="11.00" waitingCount="1" stopTime="0.00" timeLoss="26.37" rerouteNo="0" devices="tripinfo_Pepoli_10_19" vType="passenger1" speedFactor="0.91" vaporized=""/>
    <tripinfo id="Silvani_11_17" depart="40.00" departLane="203[0]_0" departPos="0.00" departSpeed="0.00" departDelay="0.00" arrival="176.00" arrivalLane="114_0" arrivalPos="692.70" arrivalSpeed="11.93" duration="136.00" routeLength="1114.25" waitingTime="34.00" waitingCount="1" stopTime="0.00" timeLoss="49.71" rerouteNo="0" devices="tripinfo_Silvani_11_17" vType="passenger3" speedFactor="0.94" vaporized=""/>
    <tripinfo id="Silvani_7_7" depart="16.00" departLane="203[0]_1" departPos="0.00" departSpeed="0.00" departDelay="0.00" arrival="177.00" arrivalLane="209_1" arrivalPos="395.59" arrivalSpeed="13.52" duration="161.00" routeLength="1451.40" waitingTime="48.00" waitingCount="1" stopTime="0.00" timeLoss="62.65" rerouteNo="0" devices="tripinfo_Silvani_7_7" vType="passenger2a" speedFactor="1.06" vaporized=""/>
    <tripinfo id="Silvani_11_32" depart="76.00" departLane="203[0]_0" departPos="0.00" departSpeed="0.00" departDelay="1.00" arrival="177.00" arrivalLane="114_1" arrivalPos="692.70" arrivalSpeed="13.72" duration="101.00" routeLength="1114.25" waitingTime="6.00" waitingCount="1" stopTime="0.00" timeLoss="23.20" rerouteNo="0" devices="tripinfo_Silvani_11_32" vType="passenger5" speedFactor="1.04" vaporized=""/>
    <tripinfo id="Togliatti_3_31" depart="44.00" departLane="85_0" departPos="0.00" departSpeed="0.00" departDelay="0.00" arrival="178.00" arrivalLane="14_0" arrivalPos="77.26" arrivalSpeed="13.86" duration="134.00" routeLength="1107.06" waitingTime="34.00" waitingCount="1" stopTime="0.00" timeLoss="54.47" rerouteNo="0" devices="tripinfo_Togliatti_3_31" vType="passenger1" speedFactor="1.04" vaporized=""/>
    <tripinfo id="Silvani_11_23" depart="54.00" departLane="203[0]_0" departPos="0.00" departSpeed="0.00" departDelay="0.00" arrival="179.00" arrivalLane="114_0" arrivalPos="692.70" arrivalSpeed="12.09" duration="125.00" routeLength="1114.25" waitingTime="21.00" waitingCount="1" stopTime="0.00" timeLoss="36.87" rerouteNo="0" devices="tripinfo_Silvani_11_23" vType="passenger3" speedFactor="0.91" vaporized=""/>
    <tripinfo id="Silvani_11_33" depart="79.00" departLane="203[0]_0" departPos="0.00" departSpeed="0.00" departDelay="2.00" arrival="179.00" arrivalLane="114_1" arrivalPos="692.70" arrivalSpeed="13.25" duration="100.00" routeLength="1114.25" waitingTime="6.00" waitingCount="1" stopTime="0.00" timeLoss="22.43" rerouteNo="0" devices="tripinfo_Silvani_11_33" vType="passenger1" speedFactor="1.04" vaporized=""/>
    <tripinfo id="Pepoli_8_62" depart="106.00" departLane="210_0" departPos="0.00" departSpeed="0.00" departDelay="0.00" arrival="179.00" arrivalLane="134b_0" arrivalPos="156.17" arrivalSpeed="12.36" duration="73.00" routeLength="692.71" waitingTime="0.00" waitingCount="0" stopTime="0.00" timeLoss="15.96" rerouteNo="0" devices="tripinfo_Pepoli_8_62" vType="passenger1" speedFactor="0.90" vaporized=""/>
    <tripinfo id="Togliatti_2_32" depart="47.00" departLane="85_0" departPos="0.00" departSpeed="0.00" departDelay="2.00" arrival="180.00" arrivalLane="77[1][1]_0" arrivalPos="463.98" arrivalSpeed="13.95" duration="133.00" routeLength="1145.48" waitingTime="33.00" waitingCount="1" stopTime="0.00" timeLoss="51.46" rerouteNo="0" devices="tripinfo_Togliatti_2_32" vType="passenger3" speedFactor="1.04" vaporized=""/>
    <tripinfo id="Pepoli_10_22" depart="37.00" departLane="210_1" departPos="0.00" departSpeed="0.00" departDelay="0.00" arrival="181.00" arrivalLane="204[1][1]_0" arrivalPos="435.51" arrivalSpeed="10.86" duration="144.00" routeLength="1470.65" waitingTime="3.00" waitingCount="1" stopTime="0.00" timeLoss="21.37" rerouteNo="0" devices="tripinfo_Pepoli_10_22" vType="passenger2a" speedFactor="0.87" vaporized=""/>
    <tripinfo id="Pepoli_8_70" depart="120.00" departLane="210_0" departPos="0.00" departSpeed="0.00" departDelay="0.00" arrival="181.00" arrivalLane="134b_0" arrivalPos="156.17" arrivalSpeed="14.39" duration="61.00" routeLength="692.71" waitingTime="1.00" waitingCount="1" stopTime="0.00" timeLoss="14.93" rerouteNo="0" devices="tripinfo_Pepoli_8_70" vType="passenger1" speedFactor="1.11" vaporized=""/>
    <tripinfo id="Pepoli_10_20" depart="34.00" departLane="210_0" departPos="0.00" departSpeed="0.00" departDelay="0.00" arrival="182.00" arrivalLane="204[1][1]_1" arrivalPos="435.51" arrivalSpeed="12.83" duration="148.00" routeLength="1470.65" waitingTime="14.00" waitingCount="1" stopTime="0.00" timeLoss="37.92" rerouteNo="0" devices="tripinfo_Pepoli_10_20" vType="passenger2a" speedFactor="0.97" vaporized=""/>
    <tripinfo id="Silvani_11_41" depart="96.00" departLane="203[0]_0" departPos="0.00" departSpeed="0.00" departDelay="0.00" arrival="182.00" arrivalLane="114_1" arrivalPos="692.70" arrivalSpeed="15.28" duration="86.00" routeLength="1114.25" waitingTime="0.00" waitingCount="0" stopTime="0.00" timeLoss="16.48" rerouteNo="0" devices="tripinfo_Silvani_11_41" vType="passenger1" speedFactor="1.16" vaporized=""/>
    <tripinfo id="Pepoli_8_75" depart="128.00" departLane="210_0" departPos="0.00" departSpeed="0.00" departDelay="0.00" arrival="182.00" arrivalLane="134b_0" arrivalPos="156.17" arrivalSpeed="15.91" duration="54.00" routeLength="692.71" waitingTime="0.00" waitingCount="0" stopTime="0.00" timeLoss="12.77" rerouteNo="0" devices="tripinfo_Pepoli_8_75" vType="passenger2b" speedFactor="1.22" vaporized=""/>
    <tripinfo id="Pepoli_10_11" depart="19.00" departLane="210_0" departPos="0.00" departSpeed="0.00" departDelay="1.00" arrival="183.00" arrivalLane="204[1][1]_0" arrivalPos="435.51" arrivalSpeed="11.52" duration="164.00" routeLength="1470.65" waitingTime="20.00" waitingCount="1" stopTime="0.00" timeLoss="45.81" rerouteNo="0" devices="tripinfo_Pepoli_10_11" vType="passenger4" speedFactor="0.90" vaporized=""/>
    <tripinfo id="Silvani_7_2" depart="4.00" departLane="203[0]_1" departPos="0.00" departSpeed="0.00" departDelay="0.00" arrival="184.00" arrivalLane="209_0" arrivalPos="395.59" arrivalSpeed="12.41" duration="180.00" routeLength="1454.90" waitingTime="58.00" waitingCount="1" stopTime="0.00" timeLoss="69.61" rerouteNo="0" devices="tripinfo_Silvani_7_2" vType="passenger1" speedFactor="0.95" vaporized=""/>
    <tripinfo id="Silvani_7_11" depart="25.00" departLane="203[0]_0" departPos="0.00" departSpeed="0.00" departDelay="0.00" arrival="185.00" arrivalLane="209_1" arrivalPos="395.59" arrivalSpeed="13.76" duration="160.00" routeLength="1454.90" waitingTime="41.00" waitingCount="1" stopTime="0.00" timeLoss="57.80" rerouteNo="0" devices="tripinfo_Silvani_7_11" vType="passenger1" speedFactor="1.03" vaporized=""/>
    <tripinfo id="Silvani_7_15" depart="35.00" departLane="203[0]_1" departPos="0.00" departSpeed="0.00" departDelay="0.00" arrival="185.00" arrivalLane="209_2" arrivalPos="395.59" arrivalSpeed="14.54" duration="150.00" routeLength="1454.90" waitingTime="33.00" waitingCount="1" stopTime="0.00" timeLoss="51.88" rerouteNo="0" devices="tripinfo_Silvani_7_15" vType="passenger5" speedFactor="1.08" vaporized=""/>
    <tripinfo id="Costa_3_33" depart="88.00" departLane="78[0]_0" departPos="0.00" departSpeed="0.00" departDelay="2.00" arrival="187.00" arrivalLane="14_0" arrivalPos="77.26" arrivalSpeed="12.46" duration="99.00" routeLength="850.23" waitingTime="4.00" waitingCount="1" stopTime="0.00" timeLoss="33.65" rerouteNo="0" devices="tripinfo_Costa_3_33" vType="passenger2b" speedFactor="0.95" vaporized=""/>
    <tripinfo id="Vittorio_Veneto_1_10" depart="45.00" departLane="224[0]_0" departPos="0.00" departSpeed="0.00" departDelay="0.00" arrival="188.00" arrivalLane="86_0" arrivalPos="321.19" arrivalSpeed="13.28" duration="143.00" routeLength="1143.28" waitingTime="46.00" waitingCount="1" stopTime="0.00" timeLoss="59.88" rerouteNo="0" devices="tripinfo_Vittorio_Veneto_1_10" vType="passenger1" speedFactor="1.01" vaporized=""/>
    <tripinfo id="Silvani_11_39" depart="92.00" departLane="203[0]_0" departPos="0.00" departSpeed="0.00" departDelay="0.00" arrival="188.00" arrivalLane="114_0" arrivalPos="692.70" arrivalSpeed="12.57" duration="96.00" routeLength="1114.25" waitingTime="0.00" waitingCount="0" stopTime="0.00" timeLoss="13.55" rerouteNo="0" devices="tripinfo_Silvani_11_39" vType="passenger2a" speedFactor="0.98" vaporized=""/>
    <tripinfo id="Silvani_7_5" depart="11.00" departLane="203[0]_0" departPos="0.00" departSpeed="0.00" departDelay="0.00" arrival="189.00" arrivalLane="209_0" arrivalPos="395.59" arrivalSpeed="12.73" duration="178.00" routeLength="1454.90" waitingTime="51.00" waitingCount="1" stopTime="0.00" timeLoss="66.17" rerouteNo="0" devices="tripinfo_Silvani_7_5" vType="passenger2a" speedFactor="0.94" vaporized=""/>
    <tripinfo id="Pepoli_11_8" depart="17.00" departLane="210_1" departPos="0.00" departSpeed="0.00" departDelay="4.00" arrival="190.00" arrivalLane="114_1" arrivalPos="692.70" arrivalSpeed="13.93" duration="173.00" routeLength="1735.40" waitingTime="34.00" waitingCount="2" stopTime="0.00" timeLoss="55.38" rerouteNo="0" devices="tripinfo_Pepoli_11_8" vType="passenger2a" speedFactor="1.07" vaporized=""/>
    <tripinfo id="Pepoli_11_15" depart="25.00" departLane="210_1" departPos="0.00" departSpeed="0.00" departDelay="0.00" arrival="190.00" arrivalLane="114_2" arrivalPos="692.70" arrivalSpeed="15.19" duration="165.00" routeLength="1735.40" waitingTime="25.00" waitingCount="3" stopTime="0.00" timeLoss="52.84" rerouteNo="0" devices="tripinfo_Pepoli_11_15" vType="passenger1" speedFactor="1.12" vaporized=""/>