<?xml version="1.0" encoding="UTF-8"?>

<!-- generated on 2026-03-09T09:55:43.741205-05:00 by Eclipse SUMO sumo 1.26.0
<sumoConfiguration xmlns:xsi="http://www.w3.org/2001/XMLSchema-instance" xsi:noNamespaceSchemaLocation="http://sumo.dlr.de/xsd/sumoConfiguration.xsd">

    <input>
        <net-file value="acosta_buslanes.net.xml"/>
        <route-files value="acosta_with_trucks.rou.xml,acosta_busses.rou.xml"/>
        <additional-files value="acosta_vtypes.add.xml,acosta_detectors.add.xml,acosta_bus_stops.add.xml,acosta_tls.add.xml"/>
    </input>

    <output>
        <tripinfo-output value="tripinfos_with_trucks.xml"/>
    </output>

    <report>
        <log value="sumo_log.txt"/>
        <duration-log.statistics value="true"/>
        <no-step-log value="true"/>
    </report>

    <gui_only>
        <gui-settings-file value="settings.gui.xml"/>
    </gui_only>

</sumoConfiguration>
-->

<tripinfos xmlns:xsi="http://www.w3.org/2001/XMLSchema-instance" xsi:noNamespaceSchemaLocation="http://sumo.dlr.de/xsd/tripinfo_file.xsd">
    <tripinfo id="Pepoli_8_16" depart="27.00" departLane="210_0" departPos="0.00" departSpeed="0.00" departDelay="0.00" arrival="82.00" arrivalLane="134b_0" arrivalPos="156.17" arrivalSpeed="14.48" duration="55.00" routeLength="692.71" waitingTime="0.00" waitingCount="0" stopTime="0.00" timeLoss="7.50" rerouteNo="0" devices="tripinfo_Pepoli_8_16" vType="passenger1" speedFactor="1.09" vaporized=""/>
    <tripinfo id="Pepoli_8_21" depart="37.00" departLane="210_0" departPos="0.00" departSpeed="0.00" departDelay="1.00" arrival="92.00" arrivalLane="134b_0" arrivalPos="156.17" arrivalSpeed="16.87" duration="55.00" routeLength="692.71" waitingTime="0.00" waitingCount="0" stopTime="0.00" timeLoss="13.75" rerouteNo="0" devices="tripinfo_Pepoli_8_21" vType="passenger1" speedFactor="1.25" vaporized=""/>
    <tripinfo id="Pepoli_8_23" depart="39.00" departLane="210_0" departPos="0.00" departSpeed="0.00" departDelay="0.00" arrival="96.00" arrivalLane="134b_0" arrivalPos="156.17" arrivalSpeed="14.85" duration="57.00" routeLength="692.71" waitingTime="0.00" waitingCount="0" stopTime="0.00" timeLoss="11.10" rerouteNo="0" devices="tripinfo_Pepoli_8_23" vType="passenger1" speedFactor="1.13" vaporized=""/>
    <tripinfo id="Togliatti_2_8" depart="11.00" departLane="85_0" departPos="0.00" departSpeed="0.00" departDelay="0.00" arrival="101.00" arrivalLane="77[1][1]_0" arrivalPos="463.98" arrivalSpeed="14.77" duration="90.00" routeLength="1145.48" waitingTime="0.00" waitingCount="0" stopTime="0.00" timeLoss="12.95" rerouteNo="0" devices="tripinfo_Togliatti_2_8" vType="passenger2a" speedFactor="1.10" vaporized=""/>
    <tripinfo id="Costa_12_0" depart="0.00" departLane="78[0]_0" departPos="0.00" departSpeed="0.00" departDelay="0.00" arrival="112.00" arrivalLane="136_0" arrivalPos="186.20" arrivalSpeed="14.68" duration="112.00" routeLength="1416.38" waitingTime="0.00" waitingCount="0" stopTime="0.00" timeLoss="14.68" rerouteNo="0" devices="tripinfo_Costa_12_0" vType="passenger1" speedFactor="1.08" vaporized=""/>
    <tripinfo id="Costa_1_2" depart="8.00" departLane="78[0]_0" departPos="0.00" departSpeed="0.00" departDelay="3.00" arrival="113.00" arrivalLane="86_0" arrivalPos="321.19" arrivalSpeed="13.76" duration="105.00" routeLength="1191.67" waitingTime="2.00" waitingCount="1" stopTime="0.00" timeLoss="18.56" rerouteNo="0" devices="tripinfo_Costa_1_2" vType="passenger2b" speedFactor="1.02" vaporized=""/>
    <tripinfo id="Costa_1_4" depart="14.00" departLane="78[0]_0" departPos="0.00" departSpeed="0.00" departDelay="4.00" arrival="113.00" arrivalLane="86_1" arrivalPos="321.19" arrivalSpeed="12.58" duration="99.00" routeLength="1182.48" waitingTime="0.00" waitingCount="0" stopTime="0.00" timeLoss="10.95" rerouteNo="0" devices="tripinfo_Costa_1_4" vType="passenger2a" speedFactor="0.99" vaporized=""/>
    <tripinfo id="Costa_12_1" depart="6.00" departLane="78[0]_0" departPos="0.00" departSpeed="0.00" departDelay="4.00" arrival="119.00" arrivalLane="136_0" arrivalPos="186.20" arrivalSpeed="14.52" duration="113.00" routeLength="1416.38" waitingTime="0.00" waitingCount="0" stopTime="0.00" timeLoss="16.54" rerouteNo="0" devices="tripinfo_Costa_12_1" vType="passenger2b" speedFactor="1.09" vaporized=""/>
    <tripinfo id="Audinot_7_0" depart="0.00" departLane="131_0" departPos="0.00" departSpeed="0.00" departDelay="0.00" arrival="124.00" arrivalLane="209_0" arrivalPos="395.59" arrivalSpeed="13.43" duration="124.00" routeLength="873.23" waitingTime="44.00" waitingCount="1" stopTime="0.00" timeLoss="57.47" rerouteNo="0" devices="tripinfo_Audinot_7_0" vType="passenger4" speedFactor="0.98" vaporized=""/>
    <tripinfo id="Costa_3_21" depart="55.00" departLane="78[0]_0" departPos="0.00" departSpeed="0.00" departDelay="1.00" arrival="128.00" arrivalLane="14_0" arrivalPos="77.26" arrivalSpeed="15.26" duration="73.00" routeLength="850.23" waitingTime="0.00" waitingCount="0" stopTime="0.00" timeLoss="17.56" rerouteNo="0" devices="tripinfo_Costa_3_21" vType="passenger1" speedFactor="1.13" vaporized=""/>
    <tripinfo id="Costa_12_3" depart="11.00" departLane="78[0]_0" departPos="0.00" departSpeed="0.00" departDelay="4.00" arrival="130.00" arrivalLane="136_0" arrivalPos="186.20" arrivalSpeed="13.50" duration="119.00" routeLength="1416.38" waitingTime="0.00" waitingCount="0" stopTime="0.00" timeLoss="15.17" rerouteNo="0" devices="tripinfo_Costa_12_3" vType="passenger1" speedFactor="1.01" vaporized=""/>
    <tripinfo id="Costa_12_7" depart="20.00" departLane="78[0]_0" departPos="0.00" departSpeed="0.00" departDelay="2.00" arrival="135.00" arrivalLane="136_0" arrivalPos="186.20" arrivalSpeed="14.36" duration="115.00" routeLength="1416.38" waitingTime="0.00" waitingCount="0" stopTime="0.00" timeLoss="19.19" rerouteNo="0" devices="tripinfo_Costa_12_7" vType="passenger5" speedFactor="1.10" vaporized=""/>
    <tripinfo id="Costa_12_11" depart="29.00" departLane="78[0]_0" departPos="0.00" departSpeed="0.00" departDelay="1.00" arrival="143.00" arrivalLane="136_0" arrivalPos="186.20" arrivalSpeed="14.53" duration="114.00" routeLength="1413.55" waitingTime="0.00" waitingCount="0" stopTime="0.00" timeLoss="17.36" rerouteNo="0" devices="tripinfo_Costa_12_11" vType="passenger2a" speedFactor="1.08" vaporized=""/>
    <tripinfo id="Turati_3_2" depart="69.00" departLane="195_0" departPos="0.00" departSpeed="0.00" departDelay="0.00" arrival="146.00" arrivalLane="14_0" arrivalPos="77.26" arrivalSpeed="13.32" duration="77.00" routeLength="947.57" waitingTime="0.00" waitingCount="0" stopTime="0.00" timeLoss="7.85" rerouteNo="0" devices="tripinfo_Turati_3_2" vType="ignoring1" speedFactor="1.00" vaporized=""/>
    <tripinfo id="Pepoli_8_25" depart="42.00" departLane="210_0" departPos="0.00" departSpeed="0.00" departDelay="0.00" arrival="151.00" arrivalLane="134b_0" arrivalPos="156.17" arrivalSpeed="12.89" duration="109.00" routeLength="692.71" waitingTime="45.00" waitingCount="1" stopTime="0.00" timeLoss="59.67" rerouteNo="0" devices="tripinfo_Pepoli_8_25" vType="passenger2a" speedFactor="1.03" vaporized=""/>
    <tripinfo id="Pepoli_8_28" depart="48.00" departLane="210_0" departPos="0.00" departSpeed="0.00" departDelay="0.00" arrival="153.00" arrivalLane="134b_0" arrivalPos="156.17" arrivalSpeed="15.64" duration="105.00" routeLength="692.71" waitingTime="43.00" waitingCount="1" stopTime="0.00" timeLoss="59.59" rerouteNo="0" devices="tripinfo_Pepoli_8_28" vType="passenger3" speedFactor="1.13" vaporized=""/>
    <tripinfo id="Pepoli_3_0" depart="0.00" departLane="210_2" departPos="0.00" departSpeed="0.00" departDelay="0.00" arrival="157.00" arrivalLane="14_0" arrivalPos="77.26" arrivalSpeed="13.71" duration="157.00" routeLength="1941.55" waitingTime="0.00" waitingCount="0" stopTime="0.00" timeLoss="15.18" rerouteNo="0" devices="tripinfo_Pepoli_3_0" vType="ignoring2b" speedFactor="1.00" vaporized=""/>
    <tripinfo id="bus_81_0" depart="4.00" departLane="55_0" departPos="0.00" departSpeed="0.00" departDelay="4.00" arrival="158.00" arrivalLane="114_0" arrivalPos="692.70" arrivalSpeed="13.71" duration="154.00" routeLength="1058.08" waitingTime="13.00" waitingCount="1" stopTime="40.00" timeLoss="27.04" rerouteNo="0" devices="tripinfo_bus_81_0" vType="bus" speedFactor="1.00" vaporized=""/>
    <tripinfo id="Silvani_11_9" depart="21.00" departLane="203[0]_0" departPos="0.00" departSpeed="0.00" departDelay="0.00" arrival="159.00" arrivalLane="114_2" arrivalPos="692.70" arrivalSpeed="15.87" duration="138.00" routeLength="1114.25" waitingTime="46.00" waitingCount="1" stopTime="0.00" timeLoss="67.36" rerouteNo="0" devices="tripinfo_Silvani_11_9" vType="passenger4" speedFactor="1.15" vaporized=""/>
    <tripinfo id="Togliatti_12_15" depart="21.00" departLane="85_2" departPos="0.00" departSpeed="0.00" departDelay="0.00" arrival="159.00" arrivalLane="136_0" arrivalPos="186.20" arrivalSpeed="11.89" duration="138.00" routeLength="909.95" waitingTime="51.00" waitingCount="1" stopTime="0.00" timeLoss="65.88" rerouteNo="0" devices="tripinfo_Togliatti_12_15" vType="passenger3" speedFactor="0.94" vaporized=""/>
    <tripinfo id="bus_13_0" depart="0.00" departLane="55_0" departPos="0.00" departSpeed="0.00" departDelay="0.00" arrival="160.00" arrivalLane="114_1" arrivalPos="692.70" arrivalSpeed="12.99" duration="160.00" routeLength="1058.08" waitingTime="19.00" waitingCount="1" stopTime="40.00" timeLoss="30.41" rerouteNo="0" devices="tripinfo_bus_13_0" vType="bus" speedFactor="1.00" vaporized=""/>
    <tripinfo id="Pepoli_3_2" depart="3.00" departLane="210_2" departPos="0.00" departSpeed="0.00" departDelay="0.00" arrival="160.00" arrivalLane="14_0" arrivalPos="77.26" arrivalSpeed="13.87" duration="157.00" routeLength="1941.55" waitingTime="0.00" waitingCount="0" stopTime="0.00" timeLoss="14.33" rerouteNo="0" devices="tripinfo_Pepoli_3_2" vType="ignoring1" speedFactor="1.00" vaporized=""/>
    <tripinfo id="Togliatti_12_24" depart="34.00" departLane="85_2" departPos="0.00" departSpeed="0.00" departDelay="0.00" arrival="162.00" arrivalLane="136_0" arrivalPos="186.20" arrivalSpeed="12.90" duration="128.00" routeLength="909.95" waitingTime="39.00" waitingCount="1" stopTime="0.00" timeLoss="56.63" rerouteNo="0" devices="tripinfo_Togliatti_12_24" vType="passenger1" speedFactor="0.95" vaporized=""/>
    <tripinfo id="XXI_Aprile_2_12" depart="42.00" departLane="13_0" departPos="0.00" departSpeed="0.00" departDelay="0.00" arrival="162.00" arrivalLane="77[1][1]_0" arrivalPos="463.98" arrivalSpeed="14.82" duration="120.00" routeLength="976.81" waitingTime="34.00" waitingCount="1" stopTime="0.00" timeLoss="54.74" rerouteNo="0" devices="tripinfo_XXI_Aprile_2_12" vType="passenger4" speedFactor="1.10" vaporized=""/>
    <tripinfo id="new_truck_16" depart="60.00" departLane="210_0" departPos="12.10" departSpeed="0.00" departDelay="2.00" arrival="162.00" arrivalLane="134b_0" arrivalPos="156.17" arrivalSpeed="13.96" duration="102.00" routeLength="680.61" waitingTime="34.00" waitingCount="1" stopTime="0.00" timeLoss="52.54" rerouteNo="0" devices="tripinfo_new_truck_16" vType="truck" speedFactor="1.02" vaporized=""/>
    <tripinfo id="Togliatti_12_48" depart="68.00" departLane="85_2" departPos="0.00" departSpeed="0.00" departDelay="0.00" arrival="163.00" arrivalLane="136_0" arrivalPos="186.20" arrivalSpeed="14.53" duration="95.00" routeLength="909.95" waitingTime="10.00" waitingCount="1" stopTime="0.00" timeLoss="33.92" rerouteNo="0" devices="tripinfo_Togliatti_12_48" vType="passenger3" speedFactor="1.10" vaporized=""/>
    <tripinfo id="Silvani_11_1" depart="3.00" departLane="203[0]_0" departPos="0.00" departSpeed="0.00" departDelay="1.00" arrival="164.00" arrivalLane="114_0" arrivalPos="692.70" arrivalSpeed="11.80" duration="161.00" routeLength="1114.25" waitingTime="54.00" waitingCount="1" stopTime="0.00" timeLoss="73.08" rerouteNo="0" devices="tripinfo_Silvani_11_1" vType="passenger2b" speedFactor="0.92" vaporized=""/>
    <tripinfo id="Silvani_11_8" depart="18.00" departLane="203[0]_0" departPos="0.00" departSpeed="0.00" departDelay="0.00" arrival="164.00" arrivalLane="114_2" arrivalPos="692.70" arrivalSpeed="13.33" duration="146.00" routeLength="1114.25" waitingTime="47.00" waitingCount="1" stopTime="0.00" timeLoss="61.93" rerouteNo="0" devices="tripinfo_Silvani_11_8" vType="passenger3" speedFactor="0.96" vaporized=""/>
    <tripinfo id="bus_91_0" depart="8.00" departLane="55_0" departPos="0.00" departSpeed="0.00" departDelay="8.00" arrival="165.00" arrivalLane="114_0" arrivalPos="692.70" arrivalSpeed="13.58" duration="157.00" routeLength="1058.08" waitingTime="17.00" waitingCount="1" stopTime="40.00" timeLoss="23.17" rerouteNo="0" devices="tripinfo_bus_91_0" vType="bus" speedFactor="1.00" vaporized=""/>
    <tripinfo id="Silvani_11_13" depart="30.00" departLane="203[0]_0" departPos="0.00" departSpeed="0.00" departDelay="0.00" arrival="165.00" arrivalLane="114_1" arrivalPos="692.70" arrivalSpeed="14.39" duration="135.00" routeLength="1114.25" waitingTime="41.00" waitingCount="1" stopTime="0.00" timeLoss="58.95" rerouteNo="0" devices="tripinfo_Silvani_11_13" vType="passenger1" speedFactor="1.06" vaporized=""/>
    <tripinfo id="Pepoli_8_44" depart="75.00" departLane="210_0" departPos="0.00" departSpeed="0.00" departDelay="0.00" arrival="166.00" arrivalLane="134b_0" arrivalPos="156.17" arrivalSpeed="12.74" duration="91.00" routeLength="692.71" waitingTime="22.00" waitingCount="1" stopTime="0.00" timeLoss="38.23" rerouteNo="0" devices="tripinfo_Pepoli_8_44" vType="passenger3" speedFactor="0.97" vaporized=""/>
    <tripinfo id="Togliatti_12_59" depart="84.00" departLane="85_2" departPos="0.00" departSpeed="0.00" departDelay="0.00" arrival="166.00" arrivalLane="136_0" arrivalPos="186.20" arrivalSpeed="12.80" duration="82.00" routeLength="909.95" waitingTime="0.00" waitingCount="0" stopTime="0.00" timeLoss="13.81" rerouteNo="0" devices="tripinfo_Togliatti_12_59" vType="passenger2a" speedFactor="1.00" vaporized=""/>
    <tripinfo id="Pepoli_10_18" depart="30.00" departLane="210_0" departPos="0.00" departSpeed="0.00" departDelay="0.00" arrival="167.00" arrivalLane="204[1][1]_0" arrivalPos="435.51" arrivalSpeed="13.32" duration="137.00" routeLength="1470.65" waitingTime="19.00" waitingCount="1" stopTime="0.00" timeLoss="35.55" rerouteNo="0" devices="tripinfo_Pepoli_10_18" vType="passenger1" speedFactor="1.05" vaporized=""/>
    <tripinfo id="Silvani_11_0" depart="0.00" departLane="203[0]_0" departPos="0.00" departSpeed="0.00" departDelay="0.00" arrival="168.00" arrivalLane="114_0" arrivalPos="692.70" arrivalSpeed="10.37" duration="168.00" routeLength="1114.25" waitingTime="56.00" waitingCount="1" stopTime="0.00" timeLoss="70.66" rerouteNo="0" devices="tripinfo_Silvani_11_0" vType="passenger3" speedFactor="0.83" vaporized=""/>
    <tripinfo id="Silvani_11_12" depart="28.00" departLane="203[0]_0" departPos="0.00" departSpeed="0.00" departDelay="0.00" arrival="168.00" arrivalLane="114_2" arrivalPos="692.70" arrivalSpeed="12.43" duration="140.00" routeLength="1114.25" waitingTime="42.00" waitingCount="1" stopTime="0.00" timeLoss="56.76" rerouteNo="0" devices="tripinfo_Silvani_11_12" vType="passenger2b" speedFactor="0.98" vaporized=""/>
    <tripinfo id="Pepoli_8_48" depart="82.00" departLane="210_0" departPos="0.00" departSpeed="0.00" departDelay="0.00" arrival="168.00" arrivalLane="134b_0" arrivalPos="156.17" arrivalSpeed="13.52" duration="86.00" routeLength="692.71" waitingTime="16.00" waitingCount="1" stopTime="0.00" timeLoss="34.28" rerouteNo="0" devices="tripinfo_Pepoli_8_48" vType="passenger2b" speedFactor="0.99" vaporized=""/>
    <tripinfo id="Silvani_11_14" depart="33.00" departLane="203[0]_0" departPos="0.00" departSpeed="0.00" departDelay="0.00" arrival="169.00" arrivalLane="114_1" arrivalPos="692.70" arrivalSpeed="15.14" duration="136.00" routeLength="1114.25" waitingTime="40.00" waitingCount="1" stopTime="0.00" timeLoss="65.25" rerouteNo="0" devices="tripinfo_Silvani_11_14" vType="passenger3" speedFactor="1.14" vaporized=""/>
    <tripinfo id="Pepoli_10_10" depart="17.00" departLane="210_0" departPos="0.00" departSpeed="0.00" departDelay="0.00" arrival="170.00" arrivalLane="204[1][1]_1" arrivalPos="435.51" arrivalSpeed="16.05" duration="153.00" routeLength="1470.65" waitingTime="32.00" waitingCount="2" stopTime="0.00" timeLoss="61.67" rerouteNo="0" devices="tripinfo_Pepoli_10_10" vType="passenger2a" speedFactor="1.17" vaporized=""/>
    <tripinfo id="Vittorio_Veneto_1_4" depart="18.00" departLane="224[0]_0" departPos="0.00" departSpeed="0.00" departDelay="0.00" arrival="170.00" arrivalLane="86_0" arrivalPos="321.19" arrivalSpeed="13.20" duration="152.00" routeLength="1143.28" waitingTime="51.00" waitingCount="1" stopTime="0.00" timeLoss="67.27" rerouteNo="0" devices="tripinfo_Vittorio_Veneto_1_4" vType="passenger1" speedFactor="1.00" vaporized=""/>
    <tripinfo id="Silvani_11_16" depart="37.00" departLane="203[0]_0" departPos="0.00" departSpeed="0.00" departDelay="0.00" arrival="170.00" arrivalLane="114_2" arrivalPos="692.70" arrivalSpeed="13.21" duration="133.00" routeLength="1114.25" waitingTime="37.00" waitingCount="1" stopTime="0.00" timeLoss="53.50" rerouteNo="0" devices="tripinfo_Silvani_11_16" vType="passenger3" speedFactor="1.02" vaporized=""/>
    <tripinfo id="Pepoli_10_4" depart="6.00" departLane="210_0" departPos="0.00" departSpeed="0.00" departDelay="0.00" arrival="171.00" arrivalLane="204[1][1]_0" arrivalPos="435.51" arrivalSpeed="10.96" duration="165.00" routeLength="1470.65" waitingTime="31.00" waitingCount="1" stopTime="0.00" timeLoss="45.22" rerouteNo="0" devices="tripinfo_Pepoli_10_4" vType="passenger2b" speedFactor="0.89" vaporized=""/>
    <tripinfo id="Pepoli_8_51" depart="87.00" departLane="210_0" departPos="0.00" departSpeed="0.00" departDelay="0.00" arrival="171.00" arrivalLane="134b_0" arrivalPos="156.17" arrivalSpeed="12.71" duration="84.00" routeLength="692.71" waitingTime="10.00" waitingCount="1" stopTime="0.00" timeLoss="28.92" rerouteNo="0" devices="tripinfo_Pepoli_8_51" vType="passenger4" speedFactor="0.93" vaporized=""/>
    <tripinfo id="Togliatti_71_2" depart="2.00" departLane="85_1" departPos="0.00" departSpeed="0.00" departDelay="0.00" arrival="172.00" arrivalLane="209_0" arrivalPos="395.59" arrivalSpeed="14.58" duration="170.00" routeLength="2025.50" waitingTime="20.00" waitingCount="1" stopTime="0.00" timeLoss="39.35" rerouteNo="0" devices="tripinfo_Togliatti_71_2" vType="passenger1" speedFactor="1.12" vaporized=""/>
    <tripinfo id="Silvani_7_4" depart="9.00" departLane="203[0]_1" departPos="0.00" departSpeed="0.00" departDelay="0.00" arrival="172.00" arrivalLane="209_2" arrivalPos="395.59" arrivalSpeed="15.64" duration="163.00" routeLength="1451.40" waitingTime="55.00" waitingCount="1" stopTime="0.00" timeLoss="72.48" rerouteNo="0" devices="tripinfo_Silvani_7_4" vType="passenger2a" speedFactor="1.15" vaporized=""/>
    <tripinfo id="Silvani_11_24" depart="57.00" departLane="203[0]_0" departPos="0.00" departSpeed="0.00" departDelay="1.00" arrival="173.00" arrivalLane="114_0" arrivalPos="692.70" arrivalSpeed="13.70" duration="116.00" routeLength="1114.25" waitingTime="20.00" waitingCount="1" stopTime="0.00" timeLoss="39.85" rerouteNo="0" devices="tripinfo_Silvani_11_24" vType="passenger1" speedFactor="1.06" vaporized=""/>
    <tripinfo id="Silvani_11_32" depart="75.00" departLane="203[0]_0" departPos="0.00" departSpeed="0.00" departDelay="0.00" arrival="174.00" arrivalLane="114_2" arrivalPos="692.70" arrivalSpeed="14.85" duration="99.00" routeLength="1114.25" waitingTime="6.00" waitingCount="1" stopTime="0.00" timeLoss="28.27" rerouteNo="0" devices="tripinfo_Silvani_11_32" vType="passenger3" speedFactor="1.15" vaporized=""/>
    <tripinfo id="Pepoli_10_11" depart="19.00" departLane="210_0" departPos="0.00" departSpeed="0.00" departDelay="1.00" arrival="175.00" arrivalLane="204[1][1]_0" arrivalPos="435.51" arrivalSpeed="11.90" duration="156.00" routeLength="1470.65" waitingTime="22.00" waitingCount="1" stopTime="0.00" timeLoss="37.99" rerouteNo="0" devices="tripinfo_Pepoli_10_11" vType="passenger4" speedFactor="0.90" vaporized=""/>
    <tripinfo id="Togliatti_71_0" depart="0.00" departLane="85_1" departPos="0.00" departSpeed="0.00" departDelay="0.00" arrival="176.00" arrivalLane="209_0" arrivalPos="395.59" arrivalSpeed="12.65" duration="176.00" routeLength="2025.50" waitingTime="12.00" waitingCount="1" stopTime="0.00" timeLoss="28.01" rerouteNo="0" devices="tripinfo_Togliatti_71_0" vType="passenger2b" speedFactor="1.00" vaporized=""/>
    <tripinfo id="Silvani_11_17" depart="40.00" departLane="203[0]_0" departPos="0.00" departSpeed="0.00" departDelay="0.00" arrival="176.00" arrivalLane="114_0" arrivalPos="692.70" arrivalSpeed="13.05" duration="136.00" routeLength="1114.25" waitingTime="36.00" waitingCount="1" stopTime="0.00" timeLoss="50.48" rerouteNo="0" devices="tripinfo_Silvani_11_17" vType="passenger3" speedFactor="0.94" vaporized=""/>
    <tripinfo id="Silvani_11_33" depart="78.00" departLane="203[0]_0" departPos="0.00" departSpeed="0.00" departDelay="1.00" arrival="176.00" arrivalLane="114_1" arrivalPos="692.70" arrivalSpeed="14.95" duration="98.00" routeLength="1114.25" waitingTime="6.00" waitingCount="1" stopTime="0.00" timeLoss="26.65" rerouteNo="0" devices="tripinfo_Silvani_11_33" vType="passenger3" speedFactor="1.13" vaporized=""/>
    <tripinfo id="Pepoli_10_19" depart="32.00" departLane="210_1" departPos="0.00" departSpeed="0.00" departDelay="0.00" arrival="177.00" arrivalLane="204[1][1]_0" arrivalPos="435.51" arrivalSpeed="12.17" duration="145.00" routeLength="1470.65" waitingTime="13.00" waitingCount="1" stopTime="0.00" timeLoss="28.15" rerouteNo="0" devices="tripinfo_Pepoli_10_19" vType="passenger1" speedFactor="0.91" vaporized=""/>
    <tripinfo id="Pepoli_8_62" depart="106.00" departLane="210_0" departPos="0.00" departSpeed="0.00" departDelay="0.00" arrival="177.00" arrivalLane="134b_0" arrivalPos="156.17" arrivalSpeed="13.05" duration="71.00" routeLength="692.71" waitingTime="0.00" waitingCount="0" stopTime="0.00" timeLoss="19.34" rerouteNo="0" devices="tripinfo_Pepoli_8_62" vType="passenger1" speedFactor="1.01" vaporized=""/>
    <tripinfo id="Costa_3_33" depart="88.00" departLane="78[0]_0" departPos="0.00" departSpeed="0.00" departDelay="2.00" arrival="178.00" arrivalLane="14_0" arrivalPos="77.26" arrivalSpeed="12.82" duration="90.00" routeLength="850.23" waitingTime="10.00" waitingCount="1" stopTime="0.00" timeLoss="23.48" rerouteNo="0" devices="tripinfo_Costa_3_33" vType="passenger1" speedFactor="0.94" vaporized=""/>
    <tripinfo id="Silvani_7_7" depart="16.00" departLane="203[0]_1" departPos="0.00" departSpeed="0.00" departDelay="0.00" arrival="179.00" arrivalLane="209_0" arrivalPos="395.59" arrivalSpeed="13.50" duration="163.00" routeLength="1451.40" waitingTime="48.00" waitingCount="1" stopTime="0.00" timeLoss="64.36" rerouteNo="0" devices="tripinfo_Silvani_7_7" vType="passenger2a" speedFactor="1.06" vaporized=""/>
    <tripinfo id="Togliatti_3_18" depart="25.00" departLane="85_0" departPos="0.00" departSpeed="0.00" departDelay="0.00" arrival="180.00" arrivalLane="14_0" arrivalPos="77.26" arrivalSpeed="11.32" duration="155.00" routeLength="1110.28" waitingTime="47.00" waitingCount="1" stopTime="0.00" timeLoss="65.25" rerouteNo="0" devices="tripinfo_Togliatti_3_18" vType="passenger2a" speedFactor="0.92" vaporized=""/>
    <tripinfo id="Pepoli_10_20" depart="34.00" departLane="210_0" departPos="0.00" departSpeed="0.00" departDelay="0.00" arrival="180.00" arrivalLane="204[1][1]_1" arrivalPos="435.51" arrivalSpeed="12.28" duration="146.00" routeLength="1470.65" waitingTime="13.00" waitingCount="1" stopTime="0.00" timeLoss="36.38" rerouteNo="0" devices="tripinfo_Pepoli_10_20" vType="passenger2a" speedFactor="0.97" vaporized=""/>
    <tripinfo id="Silvani_11_23" depart="54.00" departLane="203[0]_0" departPos="0.00" departSpeed="0.00" departDelay="0.00" arrival="180.00" arrivalLane="114_0" arrivalPos="692.70" arrivalSpeed="12.24" duration="126.00" routeLength="1114.25" waitingTime="20.00" waitingCount="1" stopTime="0.00" timeLoss="37.86" rerouteNo="0" devices="tripinfo_Silvani_11_23" vType="passenger3" speedFactor="0.91" vaporized=""/>
    <tripinfo id="Silvani_11_39" depart="92.00" departLane="203[0]_0" departPos="0.00" departSpeed="0.00" departDelay="0.00" arrival="180.00" arrivalLane="114_1" arrivalPos="692.70" arrivalSpeed="15.32" duration="88.00" routeLength="1114.25" waitingTime="0.00" waitingCount="0" stopTime="0.00" timeLoss="15.00" rerouteNo="0" devices="tripinfo_Silvani_11_39" vType="passenger2a" speedFactor="1.10" vaporized=""/>
    <tripinfo id="Pepoli_8_70" depart="121.00" departLane="210_0" departPos="0.00" departSpeed="0.00" departDelay="1.00" arrival="180.00" arrivalLane="134b_0" arrivalPos="156.17" arrivalSpeed="14.01" duration="59.00" routeLength="692.71" waitingTime="0.00" waitingCount="0" stopTime="0.00" timeLoss="11.82" rerouteNo="0" devices="tripinfo_Pepoli_8_70" vType="passenger2a" speedFactor="1.10" vaporized=""/>
    <tripinfo id="Togliatti_2_32" depart="47.00" departLane="85_0" departPos="0.00" departSpeed="0.00" departDelay="2.00" arrival="181.00" arrivalLane="77[1][1]_0" arrivalPos="463.98" arrivalSpeed="14.23" duration="134.00" routeLength="1145.48" waitingTime="33.00" waitingCount="1" stopTime="0.00" timeLoss="51.92" rerouteNo="0" devices="tripinfo_Togliatti_2_32" vType="passenger3" speedFactor="1.04" vaporized=""/>
    <tripinfo id="Costa_3_38" depart="103.00" departLane="78[0]_0" departPos="0.00" departSpeed="0.00" departDelay="4.00" arrival="181.00" arrivalLane="14_0" arrivalPos="77.26" arrivalSpeed="13.14" duration="78.00" routeLength="850.23" waitingTime="0.00" waitingCount="0" stopTime="0.00" timeLoss="15.16" rerouteNo="0" devices="tripinfo_Costa_3_38" vType="passenger3" speedFactor="0.99" vaporized=""/>
    <tripinfo id="Pepoli_10_22" depart="37.00" departLane="210_1" departPos="0.00" departSpeed="0.00" departDelay="0.00" arrival="183.00" arrivalLane="204[1][1]_0" arrivalPos="435.51" arrivalSpeed="11.25" duration="146.00" routeLength="1470.65" waitingTime="4.00" waitingCount="1" stopTime="0.00" timeLoss="23.18" rerouteNo="0" devices="tripinfo_Pepoli_10_22" vType="passenger2a" speedFactor="0.87" vaporized=""/>
    <tripinfo id="Togliatti_3_31" depart="44.00" departLane="85_0" departPos="0.00" departSpeed="0.00" departDelay="0.00" arrival="183.00" arrivalLane="14_0" arrivalPos="77.26" arrivalSpeed="13.12" duration="139.00" routeLength="1107.06" waitingTime="36.00" waitingCount="2" stopTime="0.00" timeLoss="59.86" rerouteNo="0" devices="tripinfo_Togliatti_3_31" vType="passenger1" speedFactor="1.04" vaporized=""/>
    <tripinfo id="Silvani_11_27" depart="63.00" departLane="203[0]_0" departPos="0.00" departSpeed="0.00" departDelay="0.00" arrival="184.00" arrivalLane="114_0" arrivalPos="692.70" arrivalSpeed="12.26" duration="121.00" routeLength="1114.25" waitingTime="17.00" waitingCount="1" stopTime="0.00" timeLoss="31.36" rerouteNo="0" devices="tripinfo_Silvani_11_27" vType="passenger1" speedFactor="0.90" vaporized=""/>
    <tripinfo id="Silvani_7_2" depart="4.00" departLane="203[0]_1" departPos="0.00" departSpeed="0.00" departDelay="0.00" arrival="185.00" arrivalLane="209_0" arrivalPos="395.59" arrivalSpeed="12.58" duration="181.00" routeLength="1454.90" waitingTime="58.00" waitingCount="1" stopTime="0.00" timeLoss="70.44" rerouteNo="0" devices="tripinfo_Silvani_7_2" vType="passenger1" speedFactor="0.95" vaporized=""/>
    <tripinfo id="Silvani_7_15" depart="35.00" departLane="203[0]_1" departPos="0.00" departSpeed="0.00" departDelay="0.00" arrival="185.00" arrivalLane="209_1" arrivalPos="395.59" arrivalSpeed="14.87" duration="150.00" routeLength="1454.90" waitingTime="34.00" waitingCount="1" stopTime="0.00" timeLoss="51.74" rerouteNo="0" devices="tripinfo_Silvani_7_15" vType="passenger5" speedFactor="1.08" vaporized=""/>
    <tripinfo id="Silvani_7_11" depart="25.00" departLane="203[0]_0" departPos="0.00" departSpeed="0.00" departDelay="0.00" arrival="186.00" arrivalLane="209_1" arrivalPos="395.59" arrivalSpeed="13.95" duration="161.00" routeLength="1454.90" waitingTime="41.00" waitingCount="1" stopTime="0.00" timeLoss="59.36" rerouteNo="0" devices="tripinfo_Silvani_7_11" vType="passenger1" speedFactor="1.03" vaporized=""/>
    <tripinfo id="Silvani_11_34" depart="81.00" departLane="203[0]_0" departPos="0.00" departSpeed="0.00" departDelay="1.00" arrival="186.00" arrivalLane="114_0" arrivalPos="692.70" arrivalSpeed="12.26" duration="105.00" routeLength="1114.25" waitingTime="3.00" waitingCount="1" stopTime="0.00" timeLoss="20.27" rerouteNo="0" devices="tripinfo_Silvani_11_34" vType="passenger2b" speedFactor="0.95" vaporized=""/>
    <tripinfo id="Pepoli_11_5" depart="8.00" departLane="210_1" departPos="0.00" departSpeed="0.00" departDelay="0.00" arrival="187.00" arrivalLane="114_1" arrivalPos="692.70" arrivalSpeed="14.55" duration="179.00" routeLength="1738.36" waitingTime="37.00" waitingCount="2" stopTime="0.00" timeLoss="67.88" rerouteNo="0" devices="tripinfo_Pepoli_11_5" vType="passenger1" speedFactor="1.13" vaporized=""/>
    <tripinfo id="Silvani_7_5" depart="11.00" departLane="203[0]_0" departPos="0.00" departSpeed="0.00" departDelay="0.00" arrival="188.00" arrivalLane="209_0" arrivalPos="395.59" arrivalSpeed="12.99" duration="177.00" routeLength="1454.90" waitingTime="51.00" waitingCount="1" stopTime="0.00" timeLoss="65.21" rerouteNo="0" devices="tripinfo_Silvani_7_5" vType="passenger2a" speedFactor="0.94" vaporized=""/>