<?xml version="1.0" encoding="UTF-8"?>

<!-- generated on 2026-03-09T10:20:56.997637-05:00 by Eclipse SUMO sumo 1.26.0
<sumoConfiguration xmlns:xsi="http://www.w3.org/2001/XMLSchema-instance" xsi:noNamespaceSchemaLocation="http://sumo.dlr.de/xsd/sumoConfiguration.xsd">

    <input>
        <net-file value="acosta_buslanes.net.xml"/>
        <route-files value="priced_routes2.rou.xml,acosta_busses.rou.xml"/>
        <additional-files value="acosta_vtypes.add.xml,acosta_detectors.add.xml,acosta_bus_stops.add.xml,acosta_tls.add.xml,priced_edgedata2.add.xml"/>
    </input>

    <output>
        <tripinfo-output value="tripinfos_priced2.xml"/>
    </output>

    <report>
        <no-warnings value="true"/>
        <no-step-log value="true"/>
    </report>

</sumoConfiguration>
-->

<tripinfos xmlns:xsi="http://www.w3.org/2001/XMLSchema-instance" xsi:noNamespaceSchemaLocation="http://sumo.dlr.de/xsd/tripinfo_file.xsd">
    <tripinfo id="Pepoli_8_16" depart="27.00" departLane="210_0" departPos="0.00" departSpeed="0.00" departDelay="0.00" arrival="83.00" arrivalLane="134b_0" arrivalPos="156.17" arrivalSpeed="14.35" duration="56.00" routeLength="692.71" waitingTime="0.00" waitingCount="0" stopTime="0.00" timeLoss="8.62" rerouteNo="0" devices="tripinfo_Pepoli_8_16" vType="passenger1" speedFactor="1.09" vaporized=""/>
    <tripinfo id="Pepoli_8_21" depart="36.00" departLane="210_0" departPos="0.00" departSpeed="0.00" departDelay="0.00" arrival="91.00" arrivalLane="134b_0" arrivalPos="156.17" arrivalSpeed="16.53" duration="55.00" routeLength="692.71" waitingTime="0.00" waitingCount="0" stopTime="0.00" timeLoss="13.70" rerouteNo="0" devices="tripinfo_Pepoli_8_21" vType="passenger1" speedFactor="1.25" vaporized=""/>
    <tripinfo id="Pepoli_8_23" depart="39.00" departLane="210_0" departPos="0.00" departSpeed="0.00" departDelay="0.00" arrival="95.00" arrivalLane="134b_0" arrivalPos="156.17" arrivalSpeed="14.90" duration="56.00" routeLength="692.71" waitingTime="0.00" waitingCount="0" stopTime="0.00" timeLoss="10.11" rerouteNo="0" devices="tripinfo_Pepoli_8_23" vType="passenger1" speedFactor="1.13" vaporized=""/>
    <tripinfo id="Togliatti_2_8" depart="11.00" departLane="85_0" departPos="0.00" departSpeed="0.00" departDelay="0.00" arrival="101.00" arrivalLane="77[1][1]_0" arrivalPos="463.98" arrivalSpeed="14.19" duration="90.00" routeLength="1145.48" waitingTime="0.00" waitingCount="0" stopTime="0.00" timeLoss="12.53" rerouteNo="0" devices="tripinfo_Togliatti_2_8" vType="passenger2a" speedFactor="1.10" vaporized=""/>
    <tripinfo id="Costa_12_0" depart="0.00" departLane="78[0]_0" departPos="0.00" departSpeed="0.00" departDelay="0.00" arrival="112.00" arrivalLane="136_0" arrivalPos="186.20" arrivalSpeed="14.97" duration="112.00" routeLength="1416.38" waitingTime="0.00" waitingCount="0" stopTime="0.00" timeLoss="14.48" rerouteNo="0" devices="tripinfo_Costa_12_0" vType="passenger1" speedFactor="1.08" vaporized=""/>
    <tripinfo id="Costa_1_2" depart="8.00" departLane="78[0]_0" departPos="0.00" departSpeed="0.00" departDelay="3.00" arrival="113.00" arrivalLane="86_0" arrivalPos="321.19" arrivalSpeed="13.34" duration="105.00" routeLength="1191.67" waitingTime="3.00" waitingCount="1" stopTime="0.00" timeLoss="18.37" rerouteNo="0" devices="tripinfo_Costa_1_2" vType="passenger2b" speedFactor="1.02" vaporized=""/>
    <tripinfo id="Costa_1_4" depart="14.00" departLane="78[0]_0" departPos="0.00" departSpeed="0.00" departDelay="4.00" arrival="113.00" arrivalLane="86_1" arrivalPos="321.19" arrivalSpeed="13.53" duration="99.00" routeLength="1185.31" waitingTime="0.00" waitingCount="0" stopTime="0.00" timeLoss="10.74" rerouteNo="0" devices="tripinfo_Costa_1_4" vType="passenger2a" speedFactor="0.99" vaporized=""/>
    <tripinfo id="Costa_12_1" depart="6.00" departLane="78[0]_0" departPos="0.00" departSpeed="0.00" departDelay="4.00" arrival="119.00" arrivalLane="136_0" arrivalPos="186.20" arrivalSpeed="15.06" duration="113.00" routeLength="1416.38" waitingTime="0.00" waitingCount="0" stopTime="0.00" timeLoss="16.29" rerouteNo="0" devices="tripinfo_Costa_12_1" vType="passenger2b" speedFactor="1.09" vaporized=""/>
    <tripinfo id="Audinot_7_0" depart="0.00" departLane="131_0" departPos="0.00" departSpeed="0.00" departDelay="0.00" arrival="124.00" arrivalLane="209_0" arrivalPos="395.59" arrivalSpeed="12.70" duration="124.00" routeLength="873.23" waitingTime="44.00" waitingCount="1" stopTime="0.00" timeLoss="57.66" rerouteNo="0" devices="tripinfo_Audinot_7_0" vType="passenger4" speedFactor="0.98" vaporized=""/>
    <tripinfo id="Costa_3_21" depart="56.00" departLane="78[0]_0" departPos="0.00" departSpeed="0.00" departDelay="2.00" arrival="129.00" arrivalLane="14_0" arrivalPos="77.26" arrivalSpeed="14.69" duration="73.00" routeLength="850.23" waitingTime="0.00" waitingCount="0" stopTime="0.00" timeLoss="17.82" rerouteNo="0" devices="tripinfo_Costa_3_21" vType="passenger1" speedFactor="1.13" vaporized=""/>
    <tripinfo id="Costa_12_3" depart="11.00" departLane="78[0]_0" departPos="0.00" departSpeed="0.00" departDelay="4.00" arrival="130.00" arrivalLane="136_0" arrivalPos="186.20" arrivalSpeed="13.17" duration="119.00" routeLength="1413.55" waitingTime="0.00" waitingCount="0" stopTime="0.00" timeLoss="15.04" rerouteNo="0" devices="tripinfo_Costa_12_3" vType="passenger1" speedFactor="1.01" vaporized=""/>
    <tripinfo id="Costa_12_7" depart="20.00" departLane="78[0]_0" departPos="0.00" departSpeed="0.00" departDelay="2.00" arrival="133.00" arrivalLane="136_0" arrivalPos="186.20" arrivalSpeed="14.48" duration="113.00" routeLength="1416.38" waitingTime="0.00" waitingCount="0" stopTime="0.00" timeLoss="18.21" rerouteNo="0" devices="tripinfo_Costa_12_7" vType="passenger5" speedFactor="1.10" vaporized=""/>
    <tripinfo id="Turati_3_2" depart="69.00" departLane="195_0" departPos="0.00" departSpeed="0.00" departDelay="0.00" arrival="146.00" arrivalLane="14_0" arrivalPos="77.26" arrivalSpeed="13.69" duration="77.00" routeLength="947.57" waitingTime="0.00" waitingCount="0" stopTime="0.00" timeLoss="7.82" rerouteNo="0" devices="tripinfo_Turati_3_2" vType="ignoring1" speedFactor="1.00" vaporized=""/>
    <tripinfo id="Pepoli_8_25" depart="42.00" departLane="210_0" departPos="0.00" departSpeed="0.00" departDelay="0.00" arrival="151.00" arrivalLane="134b_0" arrivalPos="156.17" arrivalSpeed="13.93" duration="109.00" routeLength="692.71" waitingTime="46.00" waitingCount="1" stopTime="0.00" timeLoss="59.77" rerouteNo="0" devices="tripinfo_Pepoli_8_25" vType="passenger2a" speedFactor="1.03" vaporized=""/>
    <tripinfo id="Pepoli_8_28" depart="48.00" departLane="210_0" departPos="0.00" departSpeed="0.00" departDelay="0.00" arrival="153.00" arrivalLane="134b_0" arrivalPos="156.17" arrivalSpeed="14.69" duration="105.00" routeLength="692.71" waitingTime="42.00" waitingCount="1" stopTime="0.00" timeLoss="59.33" rerouteNo="0" devices="tripinfo_Pepoli_8_28" vType="passenger3" speedFactor="1.13" vaporized=""/>
    <tripinfo id="Pepoli_3_0" depart="0.00" departLane="210_2" departPos="0.00" departSpeed="0.00" departDelay="0.00" arrival="157.00" arrivalLane="14_0" arrivalPos="77.26" arrivalSpeed="13.58" duration="157.00" routeLength="1941.55" waitingTime="0.00" waitingCount="0" stopTime="0.00" timeLoss="14.87" rerouteNo="0" devices="tripinfo_Pepoli_3_0" vType="ignoring2b" speedFactor="1.00" vaporized=""/>
    <tripinfo id="bus_81_0" depart="4.00" departLane="55_0" departPos="0.00" departSpeed="0.00" departDelay="4.00" arrival="158.00" arrivalLane="114_0" arrivalPos="692.70" arrivalSpeed="12.72" duration="154.00" routeLength="1058.08" waitingTime="13.00" waitingCount="2" stopTime="40.00" timeLoss="26.58" rerouteNo="0" devices="tripinfo_bus_81_0" vType="bus" speedFactor="1.00" vaporized=""/>
    <tripinfo id="Pepoli_10_10" depart="17.00" departLane="210_0" departPos="0.00" departSpeed="0.00" departDelay="0.00" arrival="158.00" arrivalLane="204[1][1]_0" arrivalPos="435.51" arrivalSpeed="15.82" duration="141.00" routeLength="1470.65" waitingTime="30.00" waitingCount="1" stopTime="0.00" timeLoss="50.31" rerouteNo="0" devices="tripinfo_Pepoli_10_10" vType="passenger2a" speedFactor="1.17" vaporized=""/>
    <tripinfo id="Silvani_11_9" depart="21.00" departLane="203[0]_0" departPos="0.00" departSpeed="0.00" departDelay="0.00" arrival="158.00" arrivalLane="114_1" arrivalPos="692.70" arrivalSpeed="15.75" duration="137.00" routeLength="1114.25" waitingTime="46.00" waitingCount="1" stopTime="0.00" timeLoss="66.04" rerouteNo="0" devices="tripinfo_Silvani_11_9" vType="passenger4" speedFactor="1.15" vaporized=""/>
    <tripinfo id="Togliatti_12_15" depart="21.00" departLane="85_2" departPos="0.00" departSpeed="0.00" departDelay="0.00" arrival="159.00" arrivalLane="136_0" arrivalPos="186.20" arrivalSpeed="12.76" duration="138.00" routeLength="909.95" waitingTime="51.00" waitingCount="1" stopTime="0.00" timeLoss="66.03" rerouteNo="0" devices="tripinfo_Togliatti_12_15" vType="passenger3" speedFactor="0.94" vaporized=""/>
    <tripinfo id="Pepoli_3_2" depart="3.00" departLane="210_2" departPos="0.00" departSpeed="0.00" departDelay="0.00" arrival="161.00" arrivalLane="14_0" arrivalPos="77.26" arrivalSpeed="13.75" duration="158.00" routeLength="1941.55" waitingTime="0.00" waitingCount="0" stopTime="0.00" timeLoss="16.22" rerouteNo="0" devices="tripinfo_Pepoli_3_2" vType="ignoring1" speedFactor="1.00" vaporized=""/>
    <tripinfo id="Silvani_11_14" depart="33.00" departLane="203[0]_0" departPos="0.00" departSpeed="0.00" departDelay="0.00" arrival="161.00" arrivalLane="114_2" arrivalPos="692.70" arrivalSpeed="15.21" duration="128.00" routeLength="1114.25" waitingTime="39.00" waitingCount="1" stopTime="0.00" timeLoss="57.38" rerouteNo="0" devices="tripinfo_Silvani_11_14" vType="passenger3" speedFactor="1.14" vaporized=""/>
    <tripinfo id="Togliatti_12_24" depart="34.00" departLane="85_2" departPos="0.00" departSpeed="0.00" departDelay="0.00" arrival="161.00" arrivalLane="136_0" arrivalPos="186.20" arrivalSpeed="12.94" duration="127.00" routeLength="909.95" waitingTime="40.00" waitingCount="1" stopTime="0.00" timeLoss="55.58" rerouteNo="0" devices="tripinfo_Togliatti_12_24" vType="passenger1" speedFactor="0.95" vaporized=""/>
    <tripinfo id="Silvani_11_1" depart="3.00" departLane="203[0]_0" departPos="0.00" departSpeed="0.00" departDelay="1.00" arrival="162.00" arrivalLane="114_0" arrivalPos="692.70" arrivalSpeed="11.44" duration="159.00" routeLength="1114.25" waitingTime="55.00" waitingCount="1" stopTime="0.00" timeLoss="71.52" rerouteNo="0" devices="tripinfo_Silvani_11_1" vType="passenger2b" speedFactor="0.92" vaporized=""/>
    <tripinfo id="Togliatti_12_48" depart="68.00" departLane="85_2" departPos="0.00" departSpeed="0.00" departDelay="0.00" arrival="162.00" arrivalLane="136_0" arrivalPos="186.20" arrivalSpeed="13.72" duration="94.00" routeLength="909.95" waitingTime="9.00" waitingCount="1" stopTime="0.00" timeLoss="29.47" rerouteNo="0" devices="tripinfo_Togliatti_12_48" vType="passenger2a" speedFactor="1.04" vaporized=""/>
    <tripinfo id="Togliatti_12_59" depart="84.00" departLane="85_2" departPos="0.00" departSpeed="0.00" departDelay="0.00" arrival="164.00" arrivalLane="136_0" arrivalPos="186.20" arrivalSpeed="14.94" duration="80.00" routeLength="909.95" waitingTime="0.00" waitingCount="0" stopTime="0.00" timeLoss="19.49" rerouteNo="0" devices="tripinfo_Togliatti_12_59" vType="passenger1" speedFactor="1.12" vaporized=""/>
    <tripinfo id="Silvani_11_0" depart="0.00" departLane="203[0]_0" departPos="0.00" departSpeed="0.00" departDelay="0.00" arrival="166.00" arrivalLane="114_0" arrivalPos="692.70" arrivalSpeed="10.22" duration="166.00" routeLength="1114.25" waitingTime="56.00" waitingCount="1" stopTime="0.00" timeLoss="69.00" rerouteNo="0" devices="tripinfo_Silvani_11_0" vType="passenger3" speedFactor="0.83" vaporized=""/>
    <tripinfo id="bus_13_0" depart="0.00" departLane="55_0" departPos="0.00" departSpeed="0.00" departDelay="0.00" arrival="166.00" arrivalLane="114_1" arrivalPos="692.70" arrivalSpeed="13.88" duration="166.00" routeLength="1058.08" waitingTime="20.00" waitingCount="2" stopTime="40.00" timeLoss="35.82" rerouteNo="0" devices="tripinfo_bus_13_0" vType="bus" speedFactor="1.00" vaporized=""/>
    <tripinfo id="Silvani_11_12" depart="28.00" departLane="203[0]_0" departPos="0.00" departSpeed="0.00" departDelay="0.00" arrival="166.00" arrivalLane="114_2" arrivalPos="692.70" arrivalSpeed="12.98" duration="138.00" routeLength="1114.25" waitingTime="41.00" waitingCount="1" stopTime="0.00" timeLoss="55.05" rerouteNo="0" devices="tripinfo_Silvani_11_12" vType="passenger2b" speedFactor="0.98" vaporized=""/>
    <tripinfo id="Pepoli_10_18" depart="30.00" departLane="210_0" departPos="0.00" departSpeed="0.00" departDelay="0.00" arrival="167.00" arrivalLane="204[1][1]_1" arrivalPos="435.51" arrivalSpeed="13.48" duration="137.00" routeLength="1470.65" waitingTime="16.00" waitingCount="1" stopTime="0.00" timeLoss="36.32" rerouteNo="0" devices="tripinfo_Pepoli_10_18" vType="passenger1" speedFactor="1.05" vaporized=""/>
    <tripinfo id="bus_91_0" depart="8.00" departLane="55_0" departPos="0.00" departSpeed="0.00" departDelay="8.00" arrival="168.00" arrivalLane="114_0" arrivalPos="692.70" arrivalSpeed="13.47" duration="160.00" routeLength="1058.08" waitingTime="17.00" waitingCount="1" stopTime="40.00" timeLoss="24.92" rerouteNo="0" devices="tripinfo_bus_91_0" vType="bus" speedFactor="1.00" vaporized=""/>
    <tripinfo id="Silvani_11_8" depart="18.00" departLane="203[0]_0" departPos="0.00" departSpeed="0.00" departDelay="0.00" arrival="168.00" arrivalLane="114_2" arrivalPos="692.70" arrivalSpeed="12.65" duration="150.00" routeLength="1114.25" waitingTime="47.00" waitingCount="1" stopTime="0.00" timeLoss="66.29" rerouteNo="0" devices="tripinfo_Silvani_11_8" vType="passenger3" speedFactor="0.96" vaporized=""/>
    <tripinfo id="Silvani_11_13" depart="30.00" departLane="203[0]_0" departPos="0.00" departSpeed="0.00" departDelay="0.00" arrival="168.00" arrivalLane="114_1" arrivalPos="692.70" arrivalSpeed="14.39" duration="138.00" routeLength="1114.25" waitingTime="40.00" waitingCount="1" stopTime="0.00" timeLoss="61.38" rerouteNo="0" devices="tripinfo_Silvani_11_13" vType="passenger1" speedFactor="1.06" vaporized=""/>
    <tripinfo id="Pepoli_8_44" depart="75.00" departLane="210_0" departPos="0.00" departSpeed="0.00" departDelay="0.00" arrival="168.00" arrivalLane="134b_0" arrivalPos="156.17" arrivalSpeed="10.90" duration="93.00" routeLength="692.71" waitingTime="18.00" waitingCount="1" stopTime="0.00" timeLoss="32.68" rerouteNo="0" devices="tripinfo_Pepoli_8_44" vType="passenger3" speedFactor="0.85" vaporized=""/>
    <tripinfo id="XXI_Aprile_2_12" depart="42.00" departLane="13_0" departPos="0.00" departSpeed="0.00" departDelay="0.00" arrival="169.00" arrivalLane="77[1][1]_0" arrivalPos="463.98" arrivalSpeed="14.22" duration="127.00" routeLength="976.81" waitingTime="38.00" waitingCount="2" stopTime="0.00" timeLoss="61.96" rerouteNo="0" devices="tripinfo_XXI_Aprile_2_12" vType="passenger4" speedFactor="1.10" vaporized=""/>
    <tripinfo id="Vittorio_Veneto_1_4" depart="18.00" departLane="224[0]_0" departPos="0.00" departSpeed="0.00" departDelay="0.00" arrival="170.00" arrivalLane="86_0" arrivalPos="321.19" arrivalSpeed="13.29" duration="152.00" routeLength="1143.28" waitingTime="54.00" waitingCount="1" stopTime="0.00" timeLoss="67.51" rerouteNo="0" devices="tripinfo_Vittorio_Veneto_1_4" vType="passenger1" speedFactor="1.00" vaporized=""/>
    <tripinfo id="Silvani_11_16" depart="37.00" departLane="203[0]_0" departPos="0.00" departSpeed="0.00" departDelay="0.00" arrival="170.00" arrivalLane="114_2" arrivalPos="692.70" arrivalSpeed="13.28" duration="133.00" routeLength="1114.25" waitingTime="38.00" waitingCount="1" stopTime="0.00" timeLoss="53.89" rerouteNo="0" devices="tripinfo_Silvani_11_16" vType="passenger3" speedFactor="1.02" vaporized=""/>
    <tripinfo id="Pepoli_8_48" depart="82.00" departLane="210_0" departPos="0.00" departSpeed="0.00" departDelay="0.00" arrival="170.00" arrivalLane="134b_0" arrivalPos="156.17" arrivalSpeed="15.33" duration="88.00" routeLength="692.71" waitingTime="18.00" waitingCount="1" stopTime="0.00" timeLoss="41.63" rerouteNo="0" devices="tripinfo_Pepoli_8_48" vType="passenger2a" speedFactor="1.11" vaporized=""/>
    <tripinfo id="Pepoli_10_4" depart="6.00" departLane="210_0" departPos="0.00" departSpeed="0.00" departDelay="0.00" arrival="171.00" arrivalLane="204[1][1]_0" arrivalPos="435.51" arrivalSpeed="11.44" duration="165.00" routeLength="1470.65" waitingTime="31.00" waitingCount="1" stopTime="0.00" timeLoss="45.25" rerouteNo="0" devices="tripinfo_Pepoli_10_4" vType="passenger2b" speedFactor="0.89" vaporized=""/>
    <tripinfo id="Togliatti_71_2" depart="2.00" departLane="85_1" departPos="0.00" departSpeed="0.00" departDelay="0.00" arrival="172.00" arrivalLane="209_0" arrivalPos="395.59" arrivalSpeed="15.06" duration="170.00" routeLength="2025.50" waitingTime="20.00" waitingCount="1" stopTime="0.00" timeLoss="39.03" rerouteNo="0" devices="tripinfo_Togliatti_71_2" vType="passenger1" speedFactor="1.12" vaporized=""/>
    <tripinfo id="Pepoli_10_11" depart="19.00" departLane="210_0" departPos="0.00" departSpeed="0.00" departDelay="1.00" arrival="172.00" arrivalLane="204[1][1]_0" arrivalPos="435.51" arrivalSpeed="11.29" duration="153.00" routeLength="1470.65" waitingTime="19.00" waitingCount="1" stopTime="0.00" timeLoss="35.13" rerouteNo="0" devices="tripinfo_Pepoli_10_11" vType="passenger4" speedFactor="0.90" vaporized=""/>
    <tripinfo id="Silvani_11_24" depart="57.00" departLane="203[0]_0" departPos="0.00" departSpeed="0.00" departDelay="1.00" arrival="172.00" arrivalLane="114_1" arrivalPos="692.70" arrivalSpeed="13.99" duration="115.00" routeLength="1114.25" waitingTime="20.00" waitingCount="1" stopTime="0.00" timeLoss="39.00" rerouteNo="0" devices="tripinfo_Silvani_11_24" vType="passenger1" speedFactor="1.06" vaporized=""/>
    <tripinfo id="Pepoli_8_51" depart="88.00" departLane="210_0" departPos="0.00" departSpeed="0.00" departDelay="1.00" arrival="172.00" arrivalLane="134b_0" arrivalPos="156.17" arrivalSpeed="11.98" duration="84.00" routeLength="692.71" waitingTime="12.00" waitingCount="1" stopTime="0.00" timeLoss="29.38" rerouteNo="0" devices="tripinfo_Pepoli_8_51" vType="passenger1" speedFactor="0.94" vaporized=""/>
    <tripinfo id="Silvani_7_4" depart="9.00" departLane="203[0]_1" departPos="0.00" departSpeed="0.00" departDelay="0.00" arrival="173.00" arrivalLane="209_1" arrivalPos="395.59" arrivalSpeed="14.65" duration="164.00" routeLength="1451.40" waitingTime="55.00" waitingCount="1" stopTime="0.00" timeLoss="73.31" rerouteNo="0" devices="tripinfo_Silvani_7_4" vType="passenger2a" speedFactor="1.15" vaporized=""/>
    <tripinfo id="Pepoli_10_20" depart="34.00" departLane="210_0" departPos="0.00" departSpeed="0.00" departDelay="0.00" arrival="173.00" arrivalLane="204[1][1]_1" arrivalPos="435.51" arrivalSpeed="12.62" duration="139.00" routeLength="1470.65" waitingTime="14.00" waitingCount="1" stopTime="0.00" timeLoss="29.05" rerouteNo="0" devices="tripinfo_Pepoli_10_20" vType="passenger2a" speedFactor="0.97" vaporized=""/>
    <tripinfo id="Silvani_11_27" depart="63.00" departLane="203[0]_0" departPos="0.00" departSpeed="0.00" departDelay="0.00" arrival="174.00" arrivalLane="114_1" arrivalPos="692.70" arrivalSpeed="14.84" duration="111.00" routeLength="1114.25" waitingTime="19.00" waitingCount="1" stopTime="0.00" timeLoss="35.15" rerouteNo="0" devices="tripinfo_Silvani_11_27" vType="passenger2a" speedFactor="1.07" vaporized=""/>
    <tripinfo id="Silvani_11_17" depart="40.00" departLane="203[0]_0" departPos="0.00" departSpeed="0.00" departDelay="0.00" arrival="175.00" arrivalLane="114_0" arrivalPos="692.70" arrivalSpeed="12.72" duration="135.00" routeLength="1114.25" waitingTime="36.00" waitingCount="1" stopTime="0.00" timeLoss="49.11" rerouteNo="0" devices="tripinfo_Silvani_11_17" vType="passenger3" speedFactor="0.94" vaporized=""/>
    <tripinfo id="Togliatti_71_0" depart="0.00" departLane="85_1" departPos="0.00" departSpeed="0.00" departDelay="0.00" arrival="177.00" arrivalLane="209_0" arrivalPos="395.59" arrivalSpeed="12.99" duration="177.00" routeLength="2025.50" waitingTime="12.00" waitingCount="1" stopTime="0.00" timeLoss="28.66" rerouteNo="0" devices="tripinfo_Togliatti_71_0" vType="passenger2b" speedFactor="1.00" vaporized=""/>
    <tripinfo id="Togliatti_3_18" depart="25.00" departLane="85_0" departPos="0.00" departSpeed="0.00" departDelay="0.00" arrival="177.00" arrivalLane="14_0" arrivalPos="77.26" arrivalSpeed="12.44" duration="152.00" routeLength="1110.28" waitingTime="46.00" waitingCount="1" stopTime="0.00" timeLoss="61.61" rerouteNo="0" devices="tripinfo_Togliatti_3_18" vType="passenger2a" speedFactor="0.92" vaporized=""/>
    <tripinfo id="Silvani_11_32" depart="76.00" departLane="203[0]_0" departPos="0.00" departSpeed="0.00" departDelay="1.00" arrival="177.00" arrivalLane="114_1" arrivalPos="692.70" arrivalSpeed="13.66" duration="101.00" routeLength="1114.25" waitingTime="7.00" waitingCount="1" stopTime="0.00" timeLoss="23.29" rerouteNo="0" devices="tripinfo_Silvani_11_32" vType="passenger5" speedFactor="1.04" vaporized=""/>
    <tripinfo id="Silvani_7_7" depart="16.00" departLane="203[0]_1" departPos="0.00" departSpeed="0.00" departDelay="0.00" arrival="178.00" arrivalLane="209_1" arrivalPos="395.59" arrivalSpeed="14.47" duration="162.00" routeLength="1451.40" waitingTime="48.00" waitingCount="1" stopTime="0.00" timeLoss="63.45" rerouteNo="0" devices="tripinfo_Silvani_7_7" vType="passenger2a" speedFactor="1.06" vaporized=""/>
    <tripinfo id="Silvani_11_23" depart="54.00" departLane="203[0]_0" departPos="0.00" departSpeed="0.00" departDelay="0.00" arrival="178.00" arrivalLane="114_0" arrivalPos="692.70" arrivalSpeed="12.39" duration="124.00" routeLength="1114.25" waitingTime="21.00" waitingCount="1" stopTime="0.00" timeLoss="35.97" rerouteNo="0" devices="tripinfo_Silvani_11_23" vType="passenger3" speedFactor="0.91" vaporized=""/>
    <tripinfo id="Costa_3_33" depart="88.00" departLane="78[0]_0" departPos="0.00" departSpeed="0.00" departDelay="2.00" arrival="178.00" arrivalLane="14_0" arrivalPos="77.26" arrivalSpeed="12.96" duration="90.00" routeLength="850.23" waitingTime="2.00" waitingCount="1" stopTime="0.00" timeLoss="24.30" rerouteNo="0" devices="tripinfo_Costa_3_33" vType="passenger2b" speedFactor="0.95" vaporized=""/>
    <tripinfo id="Silvani_11_33" depart="79.00" departLane="203[0]_0" departPos="0.00" departSpeed="0.00" departDelay="2.00" arrival="179.00" arrivalLane="114_1" arrivalPos="692.70" arrivalSpeed="13.51" duration="100.00" routeLength="1114.25" waitingTime="5.00" waitingCount="1" stopTime="0.00" timeLoss="22.26" rerouteNo="0" devices="tripinfo_Silvani_11_33" vType="passenger1" speedFactor="1.04" vaporized=""/>
    <tripinfo id="Silvani_11_41" depart="96.00" departLane="203[0]_0" departPos="0.00" departSpeed="0.00" departDelay="0.00" arrival="180.00" arrivalLane="114_1" arrivalPos="692.70" arrivalSpeed="15.24" duration="84.00" routeLength="1114.25" waitingTime="0.00" waitingCount="0" stopTime="0.00" timeLoss="14.46" rerouteNo="0" devices="tripinfo_Silvani_11_41" vType="passenger1" speedFactor="1.16" vaporized=""/>
    <tripinfo id="Pepoli_8_62" depart="106.00" departLane="210_0" departPos="0.00" departSpeed="0.00" departDelay="0.00" arrival="180.00" arrivalLane="134b_0" arrivalPos="156.17" arrivalSpeed="11.27" duration="74.00" routeLength="692.71" waitingTime="0.00" waitingCount="0" stopTime="0.00" timeLoss="16.67" rerouteNo="0" devices="tripinfo_Pepoli_8_62" vType="passenger1" speedFactor="0.90" vaporized=""/>
    <tripinfo id="Pepoli_10_22" depart="37.00" departLane="210_1" departPos="0.00" departSpeed="0.00" departDelay="0.00" arrival="181.00" arrivalLane="204[1][1]_0" arrivalPos="435.51" arrivalSpeed="10.82" duration="144.00" routeLength="1470.65" waitingTime="3.00" waitingCount="1" stopTime="0.00" timeLoss="21.09" rerouteNo="0" devices="tripinfo_Pepoli_10_22" vType="passenger2a" speedFactor="0.87" vaporized=""/>
    <tripinfo id="Togliatti_2_32" depart="47.00" departLane="85_0" departPos="0.00" departSpeed="0.00" departDelay="2.00" arrival="181.00" arrivalLane="77[1][1]_0" arrivalPos="463.98" arrivalSpeed="13.35" duration="134.00" routeLength="1145.48" waitingTime="33.00" waitingCount="1" stopTime="0.00" timeLoss="51.28" rerouteNo="0" devices="tripinfo_Togliatti_2_32" vType="passenger3" speedFactor="1.04" vaporized=""/>
    <tripinfo id="Pepoli_8_70" depart="121.00" departLane="210_0" departPos="0.00" departSpeed="0.00" departDelay="1.00" arrival="181.00" arrivalLane="134b_0" arrivalPos="156.17" arrivalSpeed="12.80" duration="60.00" routeLength="692.71" waitingTime="0.00" waitingCount="0" stopTime="0.00" timeLoss="14.20" rerouteNo="0" devices="tripinfo_Pepoli_8_70" vType="passenger1" speedFactor="1.11" vaporized=""/>
    <tripinfo id="Pepoli_8_75" depart="128.00" departLane="210_0" departPos="0.00" departSpeed="0.00" departDelay="0.00" arrival="183.00" arrivalLane="134b_0" arrivalPos="156.17" arrivalSpeed="16.30" duration="55.00" routeLength="692.71" waitingTime="0.00" waitingCount="0" stopTime="0.00" timeLoss="13.18" rerouteNo="0" devices="tripinfo_Pepoli_8_75" vType="passenger2b" speedFactor="1.22" vaporized=""/>
    <tripinfo id="Pepoli_10_19" depart="32.00" departLane="210_1" departPos="0.00" departSpeed="0.00" departDelay="0.00" arrival="184.00" arrivalLane="204[1][1]_0" arrivalPos="435.51" arrivalSpeed="12.53" duration="152.00" routeLength="1470.65" waitingTime="13.00" waitingCount="1" stopTime="0.00" timeLoss="35.07" rerouteNo="0" devices="tripinfo_Pepoli_10_19" vType="passenger1" speedFactor="0.91" vaporized=""/>
    <tripinfo id="Costa_3_38" depart="102.00" departLane="78[0]_0" departPos="0.00" departSpeed="0.00" departDelay="3.00" arrival="184.00" arrivalLane="14_0" arrivalPos="77.26" arrivalSpeed="12.73" duration="82.00" routeLength="850.23" waitingTime="0.00" waitingCount="0" stopTime="0.00" timeLoss="16.90" rerouteNo="0" devices="tripinfo_Costa_3_38" vType="passenger1" speedFactor="0.96" vaporized=""/>
    <tripinfo id="Silvani_7_2" depart="4.00" departLane="203[0]_1" departPos="0.00" departSpeed="0.00" departDelay="0.00" arrival="186.00" arrivalLane="209_0" arrivalPos="395.59" arrivalSpeed="12.78" duration="182.00" routeLength="1454.90" waitingTime="57.00" waitingCount="1" stopTime="0.00" timeLoss="71.09" rerouteNo="0" devices="tripinfo_Silvani_7_2" vType="passenger1" speedFactor="0.95" vaporized=""/>
    <tripinfo id="Silvani_7_11" depart="25.00" departLane="203[0]_0" departPos="0.00" departSpeed="0.00" departDelay="0.00" arrival="186.00" arrivalLane="209_2" arrivalPos="395.59" arrivalSpeed="13.32" duration="161.00" routeLength="1454.90" waitingTime="40.00" waitingCount="1" stopTime="0.00" timeLoss="59.53" rerouteNo="0" devices="tripinfo_Silvani_7_11" vType="passenger1" speedFactor="1.03" vaporized=""/>
    <tripinfo id="Togliatti_3_31" depart="44.00" departLane="85_0" departPos="0.00" departSpeed="0.00" departDelay="0.00" arrival="186.00" arrivalLane="14_0" arrivalPos="77.26" arrivalSpeed="13.56" duration="142.00" routeLength="1107.06" waitingTime="40.00" waitingCount="2" stopTime="0.00" timeLoss="63.19" rerouteNo="0" devices="tripinfo_Togliatti_3_31" vType="passenger1" speedFactor="1.04" vaporized=""/>
    <tripinfo id="Silvani_11_39" depart="92.00" departLane="203[0]_0" departPos="0.00" departSpeed="0.00" departDelay="0.00" arrival="187.00" arrivalLane="114_0" arrivalPos="692.70" arrivalSpeed="13.03" duration="95.00" routeLength="1114.25" waitingTime="0.00" waitingCount="0" stopTime="0.00" timeLoss="12.33" rerouteNo="0" devices="tripinfo_Silvani_11_39" vType="passenger2a" speedFactor="0.98" vaporized=""/>
    <tripinfo id="Silvani_7_5" depart="11.00" departLane="203[0]_0" departPos="0.00" departSpeed="0.00" departDelay="0.00" arrival="188.00" arrivalLane="209_0" arrivalPos="395.59" arrivalSpeed="12.33" duration="177.00" routeLength="1454.90" waitingTime="52.00" waitingCount="1" stopTime="0.00" timeLoss="65.46" rerouteNo="0" devices="tripinfo_Silvani_7_5" vType="passenger2a" speedFactor="0.94" vaporized=""/>
    <tripinfo id="Silvani_7_15" depart="35.00" departLane="203[0]_1" departPos="0.00" departSpeed="0.00" departDelay="0.00" arrival="188.00" arrivalLane="209_2" arrivalPos="395.59" arrivalSpeed="14.45" duration="153.00" routeLength="1454.90" waitingTime="33.00" waitingCount="1" stopTime="0.00" timeLoss="55.14" rerouteNo="0" devices="tripinfo_Silvani_7_15" vType="passenger5" speedFactor="1.08" vaporized=""/>
    <tripinfo id="Vittorio_Veneto_1_10" depart="45.00" departLane="224[0]_0" departPos="0.00" departSpeed="0.00" departDelay="0.00" arrival="188.00" arrivalLane="86_0" arrivalPos="321.19" arrivalSpeed="13.75" duration="143.00" routeLength="1143.28" waitingTime="48.00" waitingCount="1" stopTime="0.00" timeLoss="59.82" rerouteNo="0" devices="tripinfo_Vittorio_Veneto_1_10" vType="passenger1" speedFactor="1.01" vaporized=""/>
    <tripinfo id="Pepoli_11_5" depart="8.00" departLane="210_1" departPos="0.00" departSpeed="0.00" departDelay="0.00" arrival="189.00" arrivalLane="114_2" arrivalPos="692.70" arrivalSpeed="15.66" duration="181.00" routeLength="1738.36" waitingTime="42.00" waitingCount="2" stopTime="0.00" timeLoss="70.16" rerouteNo="0" devices="tripinfo_Pepoli_11_5" vType="passenger1" speedFactor="1.13" vaporized=""/>
    <tripinfo id="Turati_10_0" depart="0.00" departLane="195_0" departPos="0.00" departSpeed="0.00" departDelay="0.00" arrival="190.00" arrivalLane="204[1][1]_0" arrivalPos="435.51" arrivalSpeed="12.22" duration="190.00" routeLength="2032.35" waitingTime="0.00" waitingCount="0" stopTime="0.00" timeLoss="21.36" rerouteNo="0" devices="tripinfo_Turati_10_0" vType="passenger4" speedFactor="0.89" vaporized=""/>